# vtk DataFile Version 1.0
Net Charge Density
ASCII
DATASET STRUCTURED_POINTS
DIMENSIONS 256 128 1
ORIGIN 0 0 0
SPACING 0.15625 0.15625 1
POINT_DATA 32768
SCALARS rhonet float
LOOKUP_TABLE default
1.68568e-05
0.000208308
4.46511e-05
0.000129194
-0.000124443
-0.000227772
-0.000218817
-0.000128791
0.000289503
0.000150377
0.000299878
0.000243854
-0.000236807
-0.0001566
-0.000170664
-0.000108862
0.00041183
0.000333321
-0.000113963
0.000202625
-0.000333918
9.1376e-05
0.000457637
0.000103269
0.00020051
4.92422e-05
-0.000112745
0.000442224
0.000178816
0.000108846
6.24181e-05
0.000156216
5.75087e-05
0.00012586
0.000409774
0.000118478
-0.000131743
1.68709e-06
0.000173487
0.000291881
-0.000227825
0.00022754
0.000165257
0.000178797
0.000315793
-0.000113062
5.45233e-05
0.000252821
2.58955e-05
0.000457855
0.000189315
7.18515e-07
0.000185627
0.000300385
3.47515e-05
0.000146377
0.000287853
3.1141e-05
0.000101638
-0.00017769
3.53712e-05
-4.64626e-05
0.000224657
0.000196976
-7.50674e-05
6.85083e-05
0.000289273
7.05194e-05
-9.67002e-05
1.97241e-05
0.000137393
9.98172e-05
-2.16847e-06
1.58651e-06
0.000106469
5.47855e-05
0.000389127
0.000382179
0.000125495
-1.19717e-05
0.000194947
0.000157364
-0.000245368
0.000202865
0.000202163
1.30906e-05
0.000517271
0.000137953
-0.000124003
-2.47522e-06
-3.86494e-05
-7.86891e-05
0.000141055
0.000180962
0.000326248
-4.83468e-05
0.000246632
-1.47629e-05
-0.00018605
-7.28888e-05
-0.000102562
0.000146552
0.000142717
8.11222e-05
0.000381223
0.000279355
0.000257512
0.000173644
0.000125279
2.52727e-05
-9.19569e-05
0.000206484
0.000157153
-6.31439e-05
6.83777e-05
0.000157266
-7.73882e-06
-0.000215253
-4.65658e-05
5.42275e-05
0.000283484
0.000410188
-0.000313989
-6.17667e-05
0.000164486
-6.8676e-05
-0.000389555
-0.000125601
-0.000108473
-6.14182e-05
0.00019203
-5.79755e-05
0.00018084
8.56599e-05
-0.00010835
-7.5727e-05
0.0003652
0.000310406
-0.000101647
1.2693e-05
2.30991e-06
-0.000105251
0.00014963
0.000221637
0.000332925
6.70933e-05
-0.000160095
-0.000115775
-1.54733e-05
0.000289983
6.70878e-05
0.00019078
0.000183495
-6.973e-05
4.05223e-05
7.25646e-05
9.05438e-05
0.000282957
-0.000239763
3.19979e-05
-0.000380772
0.000205117
0.000409083
0.000211896
0.000335055
-0.000156465
-0.000149834
0.000127977
0.000174318
0.00017049
-3.64544e-05
-9.15657e-05
0.000254482
0.000324352
8.84824e-05
-2.18097e-05
7.83324e-05
0.00013586
0.000193342
0.000105265
9.14024e-05
4.18802e-05
-7.84316e-05
0.000210034
-7.50709e-05
0.000113788
4.60442e-05
-0.000305614
-0.000282398
-0.000241382
3.22647e-05
-4.63446e-05
0.000392683
0.000160863
0.000128493
-7.72501e-05
6.44139e-05
0.000261517
-3.98597e-05
-7.40672e-05
-0.000115422
7.56804e-05
-6.58161e-05
-8.69099e-05
-1.37433e-05
0.000332112
0.000283017
-7.87798e-05
-0.000105602
5.28356e-05
0.00015773
0.000309046
0.000209252
-5.74872e-05
2.6229e-05
0.000232566
9.43289e-05
0.000100324
-9.14487e-05
-0.000161234
-0.000118537
-0.000278466
-8.88577e-05
8.13029e-05
0.00014058
0.000346952
0.000127075
4.46263e-05
-0.000136643
-0.000135834
-6.00972e-05
-8.14312e-05
-9.80136e-06
0.000152182
4.00585e-06
0.000114849
0.000152917
0.000200868
-0.000174422
1.68609e-05
0.000175316
7.05732e-05
-4.52271e-05
0.000214047
9.32612e-05
0.000427227
0.000388904
0.00028804
0.000344989
-0.000223972
-0.000216953
-8.97809e-05
0.00013241
5.09601e-05
-0.00030221
3.18924e-05
-0.000142685
2.18045e-05
-4.0911e-05
0.000120079
-0.000284148
-0.000187135
-1.39335e-05
1.20592e-05
4.49736e-06
-0.000124346
1.65973e-05
7.14185e-05
-0.000150332
-5.99924e-05
-0.00013034
9.38517e-05
0.000281515
0.000153211
-0.000115331
3.11366e-05
-0.000118743
-0.000107183
-1.60731e-05
-9.02538e-05
1.21618e-05
-0.000257278
1.7893e-06
-0.000147337
-0.000256693
-5.55244e-05
-4.89316e-05
-0.000228694
8.76541e-05
0.000135877
9.12958e-05
5.33038e-05
-5.94389e-05
-0.000250978
-3.65316e-05
-0.00025282
-0.000151979
-0.000138589
-0.000234216
-5.266e-05
0.000197565
-9.794e-05
-0.000136589
1.9338e-05
0.00018154
0.000215004
-0.000179723
-1.35381e-05
-0.000183687
0.000143577
-6.28252e-05
-7.11767e-05
2.23753e-05
-9.67935e-05
-0.000152699
-3.83006e-08
-0.00018942
-0.000177702
2.15191e-05
8.06984e-05
-0.000149446
-0.000234088
-0.000107984
6.74538e-05
-5.54319e-05
0.000128495
8.59681e-06
-4.81281e-05
-0.000179518
-9.90513e-05
3.30817e-06
-3.94643e-05
4.59279e-05
6.04547e-05
-0.00017292
-0.000228186
-0.000107028
0.000152819
-5.78316e-06
-1.40865e-05
-0.000123331
-9.06454e-05
0.000112256
0.000122579
-0.000166062
-0.000104476
-3.0257e-05
0.000165056
0.000134756
0.000109392
0.000139314
-1.11731e-05
9.08819e-06
-1.95259e-05
4.91068e-05
-0.000114188
-0.000177931
2.18838e-06
-7.86423e-05
-1.29337e-06
4.83738e-05
5.69217e-05
4.06883e-06
0.000107993
-3.12743e-05
-7.18812e-05
-9.70853e-05
-0.000104935
-7.15115e-05
-1.99436e-05
0.000100701
5.2977e-05
5.69895e-05
0.000125411
6.68643e-06
-1.08297e-05
-0.000170359
3.45521e-06
4.86517e-05
0.000126012
0.000122517
-0.000149622
-0.00028872
-3.70452e-05
0.000152278
0.000157172
7.28423e-05
-8.75883e-05
-7.69618e-05
-3.33881e-05
-4.02683e-05
-1.5502e-05
0.000128193
0.000102196
-0.000391193
-0.000162166
-0.000147924
-0.000172789
-4.17992e-05
-0.000267122
8.44023e-06
6.54795e-05
-3.55837e-05
-0.000187949
-0.000154128
-6.36188e-05
-2.65497e-05
2.45399e-05
1.93106e-05
-0.000186021
-0.000183632
-0.000102827
0.000131923
3.04052e-05
-9.77169e-05
-6.14014e-05
-6.99195e-05
4.53852e-05
-0.000141765
3.97251e-05
-3.22765e-05
9.03104e-06
2.81855e-05
0.000104351
-0.000153309
-4.34639e-05
1.68346e-05
2.8814e-06
3.96267e-05
-8.22044e-06
0.000110759
-8.92184e-05
-0.000174651
-0.000276475
-8.74028e-05
1.73436e-06
0.000280514
-6.36126e-05
-0.000281329
-7.93242e-05
-0.000110385
1.03449e-05
3.62142e-05
-5.613e-05
-0.000129006
1.19256e-06
-0.000335855
-2.22455e-05
0.000150468
8.63371e-06
0.000212427
-0.000136479
-0.000270775
9.44374e-05
0.000171379
-0.000126303
-0.000338154
-0.000110316
-7.65454e-06
3.60488e-05
-0.000102495
0.000128703
4.13186e-05
-0.000104658
-0.000213964
4.45463e-06
-7.05313e-05
0.00013502
0.000172616
-3.63148e-05
-0.000230946
-1.06818e-05
5.04594e-05
1.91706e-05
-3.60374e-05
-0.000134025
-4.66296e-05
-2.63083e-05
5.94294e-05
-3.37716e-05
-1.64974e-05
0.000108956
-2.91818e-05
1.23527e-05
-5.66082e-05
0.000162184
-3.2143e-05
7.24597e-05
-7.48639e-05
-8.57256e-05
-9.72659e-05
0.000183882
4.91843e-06
-2.88356e-05
-0.000144584
-6.11485e-05
0.00012785
-1.28187e-05
-0.000139591
2.1022e-05
-2.59869e-05
-0.000254711
-0.000128518
-0.000104507
0.000132162
-8.23059e-05
-6.97314e-05
-7.62986e-06
-9.33459e-05
-0.000210402
-0.000204133
-0.0001454
-4.72658e-05
-7.79708e-05
-5.66957e-05
0.000282994
-0.000202979
-0.00037088
9.62636e-05
0.000162777
0.000104115
1.28697e-06
-3.58975e-05
5.86587e-05
-4.04622e-05
0.000178851
7.94691e-05
0.000157922
-2.78971e-05
5.46519e-05
6.85151e-06
7.30134e-05
0.00028117
3.84799e-06
-0.000109039
-4.05834e-05
6.01418e-05
1.95663e-05
5.59886e-05
-0.000100731
-9.2782e-05
0.000261569
-1.15751e-05
-0.000194727
-0.000106561
-7.35535e-05
0.0001319
-0.000151372
0.000127713
0.000102532
-0.000187927
-0.000189454
-5.88306e-05
-0.000120849
-0.00023024
-0.000159685
0.000272472
1.746e-05
0.000154975
-1.3222e-05
-3.60332e-05
-3.92774e-06
8.99031e-05
-0.000105831
-3.70359e-05
-8.29754e-05
-8.67806e-06
1.15864e-05
-4.37892e-05
-0.000120341
9.24515e-05
-0.000180344
6.36029e-05
7.78713e-05
8.37503e-05
0.000127579
0.000200453
-3.42284e-06
0.000127504
4.37137e-05
6.028e-05
0.000126692
0.000138065
9.48878e-06
3.75549e-05
-0.000217728
-0.000188434
-0.000211669
-8.40384e-05
9.46771e-05
-1.83447e-06
-9.79962e-05
-3.91387e-05
6.42918e-05
1.13843e-06
4.23258e-05
0.000101537
0.000173828
0.000129276
-0.000107345
-0.000178159
-0.000167102
-0.000152089
0.000141119
-2.64588e-05
-0.000198517
2.87722e-05
-8.53826e-05
-5.66626e-05
4.55538e-05
2.57441e-06
9.24191e-05
0.000198947
1.12515e-05
-0.000167332
-5.89363e-05
0.000253461
-0.000103526
4.79538e-05
-0.000226283
0.000124144
2.15913e-05
9.24892e-05
9.20799e-06
-8.56855e-05
-0.000172194
-5.97489e-05
5.03806e-05
0.000157379
4.12082e-05
-0.000105163
-7.87133e-05
-0.000110119
7.33882e-05
-4.11412e-05
-0.000124149
3.64897e-05
7.26798e-05
-0.000202736
-0.000186431
0.000248497
0.000138347
-1.7659e-05
4.43415e-05
0.00012368
-0.000157536
-9.11308e-05
-3.03801e-05
7.32809e-05
-5.7149e-05
8.47818e-06
0.000138591
-9.58279e-05
0.000100824
-3.17344e-05
-0.0001509
0.000130749
0.000160825
-9.44696e-05
-7.77687e-05
-2.09711e-06
8.26214e-05
0.000205423
2.22631e-05
-6.66275e-05
1.16549e-05
0.000168605
4.72108e-05
2.75823e-06
5.23636e-06
-9.91879e-05
2.67036e-05
0.000131945
-5.32517e-05
-0.0001316
-0.000127182
-0.000115863
1.75028e-05
8.69243e-05
0.000219151
5.46722e-05
0.000247648
0.000175559
-3.5802e-05
2.25718e-06
1.70828e-06
-9.43802e-06
4.0553e-05
-8.04508e-05
-0.000119587
-2.52405e-05
2.26951e-05
0.000299304
-3.5117e-05
-8.389e-05
-8.77461e-05
-0.000219714
1.65121e-05
0.000127413
-3.31481e-05
-2.48286e-05
-1.76145e-05
0.000107482
4.36584e-05
-2.4989e-05
-2.56249e-05
5.62416e-05
-1.21339e-05
-0.000143296
-0.000128881
-2.149e-05
-0.000127281
-5.45292e-05
5.72382e-05
-0.00015216
-0.000198095
-0.000142618
-6.64475e-05
7.92363e-05
2.44612e-06
-0.000175978
-8.07879e-05
-1.3851e-05
3.32283e-05
0.000121124
0.000126598
-0.000106992
0.000105693
8.30247e-05
-0.000140621
-0.000157805
-0.000165559
1.28491e-05
0.0002371
8.12722e-05
-3.49546e-05
9.96346e-05
-5.4094e-05
-4.67976e-05
0.000108554
-2.45615e-05
-8.44676e-05
-0.000159049
0.00016454
0.000134773
-0.000108335
-6.69161e-05
-3.60638e-05
-2.49979e-05
-4.8431e-05
0.000167748
5.48847e-05
0.000100655
-2.52456e-05
-0.00035639
-5.66428e-05
0.000156379
0.000129363
1.48994e-05
8.49366e-05
-2.55507e-05
-5.97066e-05
-8.44444e-05
-1.26234e-05
-0.000144824
1.7922e-05
0.000341587
-0.000209778
-0.000115257
0.000104891
6.42791e-05
0.000157561
-8.37238e-05
-0.000197724
3.06619e-05
-0.000159839
-0.000124106
-7.86071e-05
-0.000184251
-6.85749e-05
0.000132358
0.0001611
0.000218431
0.000234336
-0.000198191
-0.000176691
0.000124878
-0.000189044
4.24075e-05
0.000406891
0.000129831
-4.22238e-06
-0.000138001
6.53438e-05
3.26314e-05
0.000175357
2.14214e-05
-0.000151142
-0.000173034
-6.23625e-05
7.67515e-05
9.27889e-05
0.000323641
-2.34632e-05
7.22865e-05
4.07399e-05
-1.2564e-05
-0.000216068
8.28389e-05
6.22198e-05
-6.14021e-06
1.71725e-05
0.000101325
-0.000101152
0.000194845
-9.51637e-05
-0.000320057
-0.000206294
9.18815e-05
5.96457e-05
-6.38012e-05
-0.000236738
-0.00016705
0.000126561
0.000304971
0.000197969
0.00015562
-0.00018436
-5.12572e-05
-0.000163127
-0.000212047
0.000127563
0.000124724
-2.12489e-05
1.45969e-05
6.10633e-05
7.42553e-05
0.000107508
-3.06598e-05
2.0346e-05
0.000202821
-2.4765e-06
-3.79386e-05
-0.000130534
-0.000171012
-0.000145804
5.86332e-05
-3.77664e-05
-5.11911e-05
0.000109134
0.000182149
6.44106e-05
-0.000200753
-8.98177e-05
-8.92603e-06
-0.000173537
-4.10066e-05
-5.71122e-05
9.74042e-05
0.000293005
-0.000107734
-0.000206105
1.60807e-05
-3.1919e-05
-2.33424e-05
-9.91113e-06
2.26641e-05
0.0001652
-0.000126877
-0.000204543
-0.000209142
0.000180459
0.000157072
-0.000105652
0.000222258
-6.63716e-05
0.000152826
5.98937e-05
4.45208e-05
3.21337e-05
4.09132e-05
3.74722e-05
-7.78899e-05
-0.000122932
-6.29444e-05
0.000113154
6.82594e-05
6.76963e-05
-0.000193758
-0.000278463
-8.68922e-05
-0.000167649
-0.000276338
0.000135822
3.66463e-05
-0.000149888
7.92635e-05
0.000146155
-0.000127624
9.72163e-05
6.243e-05
0.000100439
-0.000178514
5.02295e-05
5.13853e-05
-0.000200262
1.68596e-05
0.000138106
7.99778e-05
0.00010203
-1.673e-05
0.000111197
2.78954e-05
-2.4983e-05
-0.000113843
-0.000103242
-2.42761e-05
0.000207727
-9.23447e-05
8.66805e-06
-0.000102952
-0.000103696
6.46417e-05
3.10101e-05
-1.70413e-05
-0.000140531
-1.24243e-05
-0.000143924
0.000122683
0.000225378
0.000202192
-0.000167434
-0.00033758
-1.55356e-05
-6.72396e-05
4.71827e-05
-5.33846e-05
8.26198e-05
4.06943e-05
-3.17565e-05
6.4966e-05
-4.92836e-05
-0.000103532
0.000122961
0.000332627
-8.53775e-05
0.00015425
0.000107224
-0.00011701
0.000188728
0.000142707
6.54368e-05
2.12032e-05
4.96898e-05
-4.07603e-05
-2.91745e-05
-9.06733e-05
9.23426e-05
0.000108715
8.52526e-05
2.04489e-05
0.000111779
3.88856e-05
2.46936e-05
-8.5897e-06
9.60323e-05
7.34265e-05
0.000120146
0.000200706
0.000165626
-9.41497e-05
-0.000127493
-0.000217587
0.000106829
0.000193237
-0.000108753
4.94912e-05
4.97464e-05
9.48001e-05
-1.72034e-05
0.000204254
5.8988e-05
-2.31247e-06
-9.54424e-05
0.000259779
0.000238573
3.61486e-05
6.35027e-05
0.000164017
-4.32802e-05
-0.000258085
-0.000120197
3.34025e-05
-0.000119922
5.38125e-05
-1.25119e-05
-0.000205602
-7.29306e-05
4.26762e-05
-4.59624e-05
-6.36692e-05
0.000181924
7.26616e-05
-7.82226e-05
-7.35369e-05
6.45944e-05
0.000144469
-0.000176818
0.000114671
0.000215335
4.88543e-05
-6.84359e-06
0.000187666
-5.57047e-07
7.52381e-05
-0.000177875
-0.000117162
0.000130714
-1.27242e-06
0.000144505
2.07918e-07
-7.93729e-05
-4.69363e-05
0.000100804
8.1673e-05
-1.52611e-05
3.11758e-05
1.29816e-05
-2.86923e-05
0.000100166
0.000169439
-5.39257e-05
-0.000196682
-1.87234e-05
-0.00022253
3.26389e-05
-0.000111761
-0.00015421
-2.55117e-05
-0.000171476
-0.000155169
-9.74509e-05
0.000154171
-6.49709e-05
-2.32452e-05
4.97421e-05
0.000227264
3.50878e-05
-2.7935e-06
9.92673e-05
-5.42011e-05
9.17232e-05
6.8507e-05
1.07028e-05
8.00476e-05
9.44685e-05
0.000147928
3.11615e-05
4.53754e-05
-4.80569e-05
-9.05171e-05
5.23431e-05
0.000160601
-2.02586e-05
4.85012e-05
0.000318062
1.69377e-05
-7.20873e-05
-1.29266e-05
5.75492e-05
6.1631e-05
-6.63196e-05
-0.000249194
-0.000109595
-8.40581e-05
-7.89276e-05
-8.74647e-05
-8.67511e-05
0.000143682
-0.000200975
-4.07486e-05
-8.2746e-05
-2.29107e-05
9.04152e-05
5.20644e-05
-0.000173947
-0.000207506
-1.09866e-05
-5.26126e-05
9.38047e-05
-0.000118991
-0.000134263
0.000297569
0.000235557
-6.66315e-05
7.62478e-05
0.000305871
4.37465e-05
7.4249e-05
0.000182184
4.35482e-05
-5.11787e-05
-0.000131297
-5.94513e-05
-0.000226345
-5.7651e-05
-0.000191118
8.27038e-06
-0.000152288
0.0002499
5.4497e-05
-0.000180342
-0.000216866
-9.89237e-05
-4.86675e-05
0.000126026
2.46752e-05
-9.65849e-05
0.000121326
8.90105e-05
-2.60749e-05
-0.000112323
6.037e-05
-0.000167038
-1.01647e-05
-0.000131615
-0.00017407
-3.11097e-06
-1.38991e-05
-0.000102389
9.84338e-06
-9.09725e-05
0.000345496
9.07166e-05
9.08386e-05
-5.97519e-05
3.7973e-05
-6.9748e-05
-6.78101e-05
1.3254e-05
3.03029e-06
-9.75407e-05
8.34458e-05
0.000216286
0.000127027
-2.87204e-05
-0.000238535
-2.14642e-05
-0.000261906
7.50276e-05
0.000143459
8.79953e-05
2.31204e-05
0.000120987
-4.06452e-06
-7.85165e-05
2.68142e-05
4.63135e-06
-6.08732e-05
0.00027759
-9.40766e-05
-1.02709e-05
-0.000276623
-0.000106886
0.000224083
4.35438e-05
-5.19063e-05
4.34933e-05
-2.74495e-05
-5.42926e-06
-2.06575e-05
-0.000128251
0.000186081
-0.0002674
-7.87956e-05
0.000159511
0.000129399
8.13028e-05
-6.82189e-05
-2.29939e-05
0.00017754
6.31278e-05
3.63716e-05
-0.000202175
-6.48415e-05
0.000130606
0.000133469
-9.72447e-05
-0.000144805
3.67531e-05
0.000198333
8.46093e-05
4.20864e-05
6.20007e-05
2.75502e-05
0.000171792
-0.000207067
-3.92275e-05
-4.85068e-06
1.41894e-05
0.000542801
1.34042e-05
-0.000235374
-0.000117174
-3.82784e-05
-3.3175e-05
-6.93367e-05
-7.41428e-05
0.000178705
-9.69942e-05
-0.00012248
5.07979e-05
-0.000104877
-5.23952e-05
9.51116e-05
3.86727e-05
-1.95159e-06
-2.46987e-06
0.000181495
0.000143523
-0.000215103
2.72121e-06
0.000173495
-8.22529e-05
-1.73644e-05
0.000154868
-6.16862e-06
-1.16507e-05
7.90244e-05
0.000243854
5.30189e-05
-3.39771e-05
0.000156942
3.22785e-06
-9.80737e-05
7.03854e-05
0.000159163
-0.000123938
1.51801e-05
-2.17928e-05
-5.37354e-05
0.000192792
-0.000130538
0.000119179
0.000163233
8.92549e-05
-0.000279756
-2.17882e-05
0.000120245
-9.90513e-05
2.01657e-05
-6.68853e-05
-0.00019821
0.000124259
0.000161205
-7.17964e-05
-4.26549e-05
0.000135217
0.000123273
0.00018487
0.000128484
3.08171e-05
0.000121522
-0.000221027
-0.000288767
-3.2584e-05
6.08943e-05
6.2905e-06
-8.80661e-05
-0.000164292
0.000154383
-0.000138984
0.000147245
0.000324504
3.68023e-05
-5.93415e-05
-4.94246e-05
-0.000159337
-3.6495e-05
0.000159885
-8.9866e-05
-4.89488e-05
6.54291e-05
9.69658e-06
-0.000111378
7.92065e-05
0.000243561
9.52162e-05
1.30187e-05
0.000189942
9.75989e-05
1.30575e-05
-1.7746e-05
-6.94136e-05
-0.000100397
-0.000121412
-1.71561e-05
-0.000101616
0.000239421
0.000151639
3.39036e-06
0.000114852
7.80431e-05
-0.000191744
0.000140797
4.47803e-06
-0.000207042
-0.000146646
1.20631e-05
0.000107634
0.000238768
-5.55634e-05
-3.07533e-05
-7.35605e-05
-0.000237558
-4.54953e-05
-0.00014323
-0.000201298
-7.21571e-05
-0.000178205
0.000206267
7.88667e-05
-8.3038e-05
-2.36315e-05
7.71425e-05
-0.000101013
-0.000149285
1.74735e-05
-0.00019104
-7.46802e-05
-0.000101469
-0.000146732
-4.90827e-05
0.000181265
0.000479693
2.35529e-05
0.000108279
-4.25957e-05
1.01344e-05
9.66237e-05
-0.000159769
-0.000251446
-5.39036e-05
8.53802e-05
5.99293e-05
4.56133e-05
7.9785e-05
-0.000149419
-7.31484e-05
-0.000274677
-4.14973e-05
-9.18049e-05
9.43181e-05
0.000222019
-1.79394e-05
0.000179701
-0.000136979
3.67891e-05
0.000298048
-3.23567e-05
-0.000214609
-0.00017319
4.62644e-05
0.00014816
-0.000229977
0.00010353
9.44247e-05
8.77916e-05
-0.000155255
-9.69321e-06
-2.34923e-05
7.48632e-05
0.000228462
-8.62498e-06
0.000172909
-4.33564e-05
-2.26335e-06
0.000146039
-3.91452e-05
3.62297e-05
0.00031886
0.000159102
-6.41833e-05
-2.37696e-05
7.77117e-05
-0.000177921
-2.65867e-05
-0.000167925
-8.60887e-05
-0.00017657
-0.00013521
-6.63846e-05
-8.18772e-05
-8.71103e-05
-9.0752e-05
6.88029e-05
0.000244002
7.01426e-06
-0.000167009
-0.000173728
0.00019791
9.14698e-06
-2.38526e-05
-0.000138867
5.7062e-05
0.00012862
0.000312513
-5.25604e-06
-7.54448e-05
-5.63738e-05
-0.000130891
-0.000144323
-3.93564e-05
0.000166381
-6.50878e-07
6.24541e-05
-8.22414e-05
-0.000149834
4.21768e-05
-0.000145644
-7.24157e-05
-6.44522e-05
-0.000169553
-0.000122582
1.23633e-06
0.000156945
8.38656e-07
-1.91239e-05
0.000175776
-0.000145268
-6.85494e-05
9.96997e-05
1.30662e-05
0.000132759
-9.37131e-05
-1.68288e-05
-9.80507e-05
-0.000108027
0.000149401
0.000101129
-0.000130139
4.53205e-07
0.000145026
3.48581e-05
-6.50268e-05
-9.86569e-05
-2.48903e-05
6.27758e-06
-0.000251265
7.80397e-05
3.93979e-05
-6.80251e-05
-0.000181343
-0.000190128
-8.14279e-05
0.000180409
0.000237642
0.000109881
5.58556e-05
2.50515e-05
0.000115502
4.31181e-05
-0.000148521
-9.83881e-05
-4.39066e-05
-5.79626e-05
0.000116506
0.000241226
-1.54763e-05
-6.95651e-05
1.21669e-05
5.36321e-05
-2.80545e-05
0.000106051
-2.50114e-05
5.48176e-05
3.86091e-05
3.61453e-05
0.000150367
-4.49218e-05
-5.49683e-05
2.06321e-05
-4.42484e-05
-4.68933e-06
-0.000124969
-2.80121e-05
-3.55464e-05
-7.959e-05
-7.42075e-05
5.87641e-06
-0.00012441
4.64451e-05
0.000275443
-5.81273e-06
-2.56435e-05
-0.000151659
-6.50695e-05
-6.11328e-05
-0.000135222
6.20645e-06
0.000129459
-0.000106741
1.14308e-05
-5.64881e-05
1.61829e-05
0.000117373
-1.45611e-05
-4.32964e-05
0.000132308
6.6227e-05
3.22614e-05
-6.20859e-05
1.32713e-07
0.000215452
0.000196625
3.48599e-05
-0.000177612
-0.000177068
-0.000188579
1.02997e-05
-1.92878e-05
0.000106545
9.67253e-05
8.13298e-05
-3.01505e-05
3.02001e-05
-6.05708e-05
-3.36464e-06
-0.000150892
-0.000180649
-1.70597e-05
5.9306e-05
-1.96274e-05
-9.01853e-05
9.59701e-05
-0.000141416
6.6801e-05
0.000121578
-7.22326e-05
0.000137396
-0.000162842
-6.05844e-05
9.2464e-06
8.8768e-05
0.000137539
0.000191784
-0.000102921
-0.00015405
1.77062e-05
-6.45185e-06
-0.000130761
-7.35356e-05
9.06972e-05
-8.11188e-05
6.38171e-05
0.000153669
-8.87315e-05
0.00015783
1.99719e-05
4.72122e-05
2.14957e-05
-3.06705e-05
-0.000221483
-0.000154442
-1.48669e-05
4.2469e-05
0.000125102
9.73304e-05
-6.79874e-05
-3.27243e-05
0.000126079
-0.000187146
-5.11408e-05
0.000203131
0.000147323
-0.000247231
2.12064e-05
0.000154446
-4.61086e-05
-1.54106e-05
-0.000122759
-0.000176079
-5.20945e-05
0.000184631
-7.59084e-05
-3.14206e-05
9.35718e-05
-5.77546e-05
1.25684e-05
0.000103564
0.000264347
0.000323059
0.000177878
4.5964e-05
0.000119374
3.78106e-05
-0.000350288
-3.84591e-05
-6.54028e-05
-8.0128e-05
-0.000106304
4.9646e-05
9.50354e-05
5.59479e-05
-0.000116687
-3.4726e-05
3.66981e-05
5.20025e-05
-0.000172324
0.0001783
3.88905e-05
0.000102846
-0.00010335
-1.946e-06
-5.40824e-05
-9.54196e-05
-0.00023436
-0.000132554
-7.59118e-05
0.0001713
1.49679e-05
-2.96733e-05
0.000114913
0.000174653
2.54392e-05
4.10873e-05
-0.000150996
-5.01738e-05
0.000185538
0.000131611
4.76348e-06
3.53684e-05
-7.26453e-05
0.000335841
6.45756e-05
4.36848e-06
-0.000174035
7.34652e-05
2.30595e-05
1.11958e-05
0.000367
3.47951e-05
9.23581e-06
-2.9588e-05
-0.000170831
-0.000130038
-6.20706e-05
-6.08774e-05
-7.44467e-05
-7.07279e-05
3.97342e-05
-7.2683e-05
-3.01679e-06
-0.000103101
-2.64877e-05
-0.000139864
3.29125e-05
0.000253564
9.37185e-05
-3.30082e-05
3.47168e-05
0.000263313
0.000160313
-7.35802e-05
0.00013674
0.000222054
0.000145418
-0.000147637
-0.000155268
-2.49721e-05
6.31425e-06
9.59367e-06
8.94719e-05
-1.8967e-05
1.94684e-05
-6.84083e-05
-7.63189e-05
7.98296e-05
-0.000124681
-8.93102e-05
3.44111e-05
0.000162242
-6.76429e-05
0.000133094
9.53979e-05
1.45475e-05
-7.74966e-05
-3.20985e-05
-9.05761e-05
3.73266e-05
-7.63333e-05
-0.000257783
-0.00015944
-0.000191826
5.34446e-05
-0.000183728
-0.000232687
-0.000149367
9.09296e-05
9.69685e-05
-3.01836e-05
0.000139446
-5.49504e-06
-0.000116205
-0.00029373
-5.36562e-05
0.000145084
-3.31702e-06
-0.000109241
-7.63468e-05
-5.58463e-05
4.54497e-05
-0.00031346
2.23629e-05
0.000145707
-2.19252e-05
0.000232396
0.000103768
-6.3431e-05
0.000112506
-0.000163586
0.000171251
5.1823e-05
0.000163579
-0.000107602
4.28654e-05
8.98736e-05
-0.000203542
-7.87617e-05
2.27542e-05
-4.95908e-05
0.000113401
8.82061e-05
-3.76314e-05
-0.000116115
-3.1041e-06
9.33689e-05
2.11366e-05
-2.82096e-05
-5.09247e-06
-2.34186e-05
2.34317e-05
-2.55964e-05
2.01282e-05
0.000111345
-8.52351e-05
0.000132378
-2.04529e-05
0.000117124
-1.93084e-05
-4.38772e-05
-0.000154482
5.28395e-05
0.000181305
-0.00010133
1.45114e-05
-0.000114974
-0.000162822
-8.3996e-05
1.07317e-05
-0.00017421
0.00014936
1.21956e-05
0.000147614
4.47428e-05
-7.34907e-06
-2.17337e-05
-0.000188273
-1.97988e-06
0.000182179
-0.000114827
-9.08887e-05
-0.000239732
-1.40455e-05
1.53105e-05
0.000141082
5.28272e-05
9.24751e-05
4.68369e-05
0.00014115
6.9407e-05
0.000242501
-0.00013308
-5.02509e-05
-1.9162e-06
-0.000134188
-6.78048e-05
-2.12902e-05
-4.44985e-05
-9.21908e-05
-9.8235e-05
-0.000271788
0.000116633
7.63871e-05
1.61378e-05
0.000126737
3.59495e-05
3.80563e-05
-0.00016997
-0.000113367
-2.11294e-05
-0.000173841
0.000122493
-0.000167395
-0.000243606
3.5627e-05
-4.31305e-05
2.24574e-05
7.27933e-05
6.00191e-05
-2.63144e-05
-0.000343008
-0.000274352
1.62093e-05
0.000224883
0.000317777
-0.000128778
-0.000247329
5.01738e-06
5.06495e-05
-0.000131582
-0.000198281
-3.83748e-05
0.000134037
0.000188415
-0.000146006
-6.36466e-05
-0.000113705
-5.34882e-05
-4.81156e-06
-6.33157e-05
-2.0235e-05
0.000214582
0.000243165
-3.57486e-05
4.70338e-05
2.03305e-05
-0.000114111
-0.000119798
-0.000159636
0.000124833
-6.289e-05
2.15837e-05
-0.000222664
4.86986e-05
1.95305e-05
-9.54228e-05
0.00012863
4.54804e-05
2.50336e-05
3.27802e-05
-0.000144709
-0.000112223
0.000102564
0.000176863
0.000240922
6.91856e-07
1.71321e-05
-0.000148029
-4.82413e-05
-7.94069e-07
-0.00017955
-0.000112101
-2.10258e-06
-5.40857e-05
0.000257045
6.10139e-05
-0.000119853
1.23184e-05
-5.8922e-05
-4.43277e-05
0.000131926
3.31216e-05
-1.53639e-05
5.87031e-05
0.000119939
0.000121238
-2.52191e-06
6.81707e-05
-8.69739e-06
0.000119472
0.000145444
-8.05249e-05
0.000221204
-7.89803e-05
4.3407e-05
3.88182e-05
-0.000298386
-0.000158264
4.48037e-05
-6.57217e-05
-5.09679e-05
8.8586e-05
-7.68298e-05
3.51864e-05
-9.6605e-05
-0.000104285
8.27427e-05
9.22768e-05
-5.28652e-05
0.000116902
-0.000113974
-0.000301433
-2.39313e-05
0.00025085
-0.0001826
8.19061e-05
0.000141404
7.27118e-05
-0.000244777
0.000315507
-6.55634e-05
-7.3038e-05
0.000103969
0.000134196
-0.000204436
-0.000135909
-3.9649e-05
3.07062e-05
0.000100905
0.000106199
1.5088e-05
-1.28387e-05
-6.6913e-05
7.13535e-05
-1.9539e-05
-4.01464e-05
0.000115254
0.000131579
-0.000164244
0.00014493
-1.53468e-05
-0.000189068
-0.000196049
-0.000115581
0.000128762
5.79774e-05
0.000430854
0.000135729
4.39081e-05
0.000194376
7.79515e-05
9.25155e-05
0.000217325
0.000113307
-0.000139332
-0.00010441
3.39284e-05
0.0002735
-0.000103931
-9.2736e-05
-0.000326208
-8.16416e-05
-0.00010555
7.70155e-05
4.97776e-05
0.000170631
4.52007e-05
7.59807e-05
-0.000166124
6.56821e-05
0.000145203
0.000105737
-0.000139498
0.000149398
0.00016599
-0.000100248
-0.000163151
-8.53717e-05
-8.85753e-05
-6.35765e-05
-3.26993e-05
0.000302422
4.00204e-05
0.000223145
3.67089e-05
-9.80762e-05
-0.000143978
-0.000186721
-0.000327552
8.32607e-05
-6.91417e-05
-0.00013381
-0.000143076
-0.000135742
0.000279687
-0.000100802
-0.000219138
-3.93123e-06
-0.000216635
6.81442e-05
1.09897e-05
0.000183182
-0.000241954
-9.51702e-05
-2.46401e-05
-0.000188567
1.96043e-07
9.46108e-05
1.3069e-05
0.000292684
0.000381081
9.32564e-05
0.000128026
-0.000150828
-0.000282847
-5.836e-05
7.0976e-05
3.33691e-05
8.40251e-05
1.29498e-05
5.66078e-05
0.000110042
-4.78057e-05
-0.000108432
0.000127125
2.90578e-05
-0.000163002
-1.83214e-06
1.54304e-05
-1.74909e-05
-0.000125633
-0.000185097
-0.000186612
1.89578e-05
9.92384e-05
-0.000131052
-0.000190983
4.44512e-05
8.1356e-05
0.000166511
0.000144952
-2.97953e-06
0.000117441
-2.45357e-06
6.9842e-05
0.000182725
7.72326e-05
-0.000168014
-4.36138e-05
0.000114382
0.000103866
-3.12403e-05
-6.68128e-05
-9.38833e-05
-8.32533e-05
0.00018701
7.17225e-05
-0.0002468
-0.000123751
-0.000157696
-1.55536e-05
6.55705e-05
0.000143685
-5.58011e-05
-0.00019876
5.89234e-05
0.000269761
0.000137008
-0.000113467
-0.000100584
-0.000142309
-0.000135503
0.000371964
0.000226596
0.000126585
-0.000238623
-4.53201e-05
-0.000125648
-0.000108373
-1.32872e-05
0.000190165
5.31483e-06
5.12109e-05
0.000325811
0.000144871
0.000192735
-4.83081e-05
-1.38418e-05
0.00028096
7.5486e-05
-0.000102668
-5.99124e-05
-0.000148382
-9.58925e-06
7.68189e-05
-0.000208319
-0.00029463
2.88443e-05
1.18737e-05
-0.000206026
-0.00012535
0.000120692
7.08166e-06
-4.75053e-05
1.34417e-05
0.000208688
-0.000130104
0.000257604
4.18734e-05
-4.08904e-05
-4.29136e-05
4.06378e-05
6.68614e-05
-0.00020394
-0.000148531
-0.000104818
-1.50885e-05
0.00017898
3.79753e-05
0.00021953
0.000103538
-7.09427e-05
-9.21777e-07
-5.12919e-05
1.21373e-05
6.04353e-05
-0.000107055
-0.000289419
-0.000108322
0.000150856
-4.34555e-06
-5.59026e-07
-2.76032e-06
-5.30088e-05
-0.000125921
9.54848e-05
0.000193364
8.29925e-06
5.34955e-05
1.01887e-05
-3.54208e-05
1.84256e-05
-0.000130935
-0.000127189
8.38074e-06
-0.000256798
4.08376e-05
0.000207226
0.000168949
8.2653e-05
4.67062e-05
4.074e-05
-0.000209325
-5.62625e-05
-4.02249e-05
-0.000165617
0.000182782
-6.77268e-05
-0.00014121
0.000100947
0.000126506
-0.000160028
-0.000330098
-0.000245697
-7.34717e-05
-3.50932e-05
-2.78325e-05
-6.95512e-05
0.000149231
7.92027e-05
-1.12527e-06
0.000266371
0.000130351
6.0839e-05
-0.00018935
-7.61705e-06
6.72007e-06
-3.5857e-05
-0.000234321
0.000178016
-0.000159549
2.51683e-05
1.20242e-05
4.7544e-06
-9.09888e-05
-3.23192e-06
-5.31443e-05
-7.75245e-05
-0.000141423
9.21161e-05
-8.53084e-05
4.44369e-05
0.000135985
-7.89709e-05
-0.000273766
3.56121e-05
5.71259e-05
-0.000174175
-1.01738e-05
8.45108e-05
-0.000225683
-7.48725e-05
0.000254919
1.79439e-05
-3.97062e-05
2.01561e-05
7.77402e-05
1.6337e-05
0.000118188
0.000100482
1.90798e-05
2.44444e-05
-5.67106e-06
0.000237825
8.63059e-05
-0.000158542
-0.000135156
1.27504e-05
1.78769e-05
-0.000144378
7.06346e-05
0.000167361
5.96883e-05
0.000154479
9.90647e-05
0.000122648
3.43679e-05
-0.000243648
-0.000110666
0.000158674
6.46184e-05
7.96677e-06
-1.42273e-05
5.84683e-05
3.00773e-05
2.16649e-05
-0.000210988
6.9602e-05
4.63158e-06
1.036e-05
-0.000133201
-8.67307e-05
0.00026909
-5.1903e-05
0.000227881
0.000154625
-0.000178846
-0.00045879
-0.000234857
-3.42949e-05
-1.60297e-05
-0.000147577
0.00016287
0.000249314
0.000142556
0.000211798
6.37791e-05
8.0313e-05
-7.32932e-05
1.77864e-05
-0.000101201
-0.0003207
7.11055e-05
0.000278392
0.000115211
1.4793e-05
5.19778e-05
-1.65822e-06
0.000384452
0.000109676
7.1065e-05
-4.78537e-06
9.57977e-05
8.78895e-05
-0.00013523
-0.000255555
-8.15789e-05
6.249e-05
9.18865e-05
0.000138032
-8.52591e-05
0.00015373
-9.40602e-05
0.000108428
-0.00014017
-0.000166646
-9.38401e-05
-0.000172876
-0.00013444
0.000121666
4.29511e-05
-0.000177253
6.5045e-05
-8.3491e-05
-0.000222516
-9.00645e-05
0.000183978
-0.000102608
1.28421e-05
1.13711e-05
-3.8428e-05
-4.43403e-06
4.5243e-05
0.000271346
6.09546e-05
-5.67195e-05
0.000233858
4.69361e-05
0.000183594
9.023e-05
0.000180949
0.000183345
-3.11709e-05
-0.000155571
-8.98221e-05
-3.3115e-05
0.000156954
-9.93545e-05
0.000174686
8.92743e-06
-0.000133333
0.000125585
0.000183488
-7.37514e-06
0.000163805
-6.72198e-05
-5.16514e-05
4.74032e-06
0.000196851
0.000155244
0.000106507
-5.24969e-05
-3.77955e-05
-7.85338e-07
-6.26027e-05
1.91788e-05
-0.000131017
-5.20498e-05
-6.23995e-05
-0.00011297
0.000119112
0.000255985
0.000158362
6.47276e-05
2.48447e-05
0.000170703
2.88832e-05
-3.73594e-05
-7.4429e-06
2.37422e-05
-0.000169095
-0.000178391
-0.000312414
7.23423e-05
4.98898e-05
8.96265e-05
-2.86625e-05
-0.000132858
-0.000225251
-0.000144544
-0.000174805
-0.000137614
0.000165228
0.000376206
7.72427e-06
-6.04182e-05
-0.000148225
9.21667e-05
4.63455e-05
-0.000148979
-9.81654e-05
-4.76993e-05
1.80422e-05
-1.08876e-05
0.000176652
-8.51136e-06
-0.00013884
3.31909e-05
0.000101009
0.000201063
6.38099e-05
-0.000216549
7.25931e-06
3.44154e-05
6.2994e-05
0.000231006
0.000370834
0.000118481
-0.000117991
3.95675e-05
8.71723e-05
5.25254e-06
-6.05679e-05
4.59424e-05
9.94091e-05
5.6969e-06
-1.4387e-05
-9.90125e-05
-9.68301e-05
-3.64403e-05
-2.52447e-06
-0.000106123
8.54488e-06
9.37275e-05
0.000204033
9.67791e-05
5.43143e-05
-5.87476e-05
-0.000147087
7.5708e-05
4.9815e-05
0.000153856
0.000154547
-0.000133476
-0.0002903
-2.7084e-05
4.68432e-05