# vtk DataFile Version 1.0
Net Charge Density
ASCII
DATASET STRUCTURED_POINTS
DIMENSIONS 256 128 1
ORIGIN 0 0 0
SPACING 0.15625 0.15625 1
POINT_DATA 32768
SCALARS rhonet float
LOOKUP_TABLE default
-2.63753e-05
-0.000131112
6.17113e-05
0.000190827
1.9788e-05
0.000201039
7.31542e-05
-8.29416e-05
0.000211403
0.0001658
3.70366e-05
0.000304568
0.000154702
-0.000184527
-0.000240348
0.000244202
0.000177186
-9.91294e-05
-7.68807e-06
1.8472e-05
-2.70564e-05
0.000103245
-7.43887e-05
6.18888e-05
6.12352e-05
4.2391e-05
0.000100794
7.82072e-05
0.000294616
4.68676e-05
-0.000220604
-0.000137086
0.000161498
0.000191193
3.04452e-05
0.000140222
0.000153004
-6.74241e-05
4.81585e-05
8.90531e-06
0.000199971
0.000140744
8.60597e-05
0.000113365
0.000122642
2.09206e-05
5.80634e-05
0.000101177
8.78334e-05
0.000100613
0.00014462
-4.76912e-05
0.000191199
0.000168227
-7.95426e-05
-3.75633e-05
-3.48415e-05
0.000199873
0.000101727
0.000180452
-0.000185004
0.000277778
0.000179116
-5.07066e-05
-0.000104816
3.40516e-05
-9.67025e-05
0.000164791
3.70608e-06
-9.80323e-05
-8.22648e-05
-0.000134917
6.21588e-06
0.000278128
9.38987e-05
-3.66751e-05
7.8342e-05
0.000150264
2.83918e-05
6.67095e-06
-0.000113602
-5.77678e-05
0.000310875
0.000127545
0.000133766
0.000169798
0.00020226
-0.000164682
0.000209049
0.000323709
7.535e-05
-7.91799e-05
3.13766e-05
2.79504e-05
2.06139e-05
0.000206968
-6.12648e-05
9.85211e-05
-0.000101058
0.000529923
0.000183003
-3.01499e-05
8.06776e-05
-1.76528e-05
1.93969e-05
0.000211541
2.68035e-05
-2.49646e-05
2.26126e-05
-2.87858e-05
9.03436e-05
0.000122602
-4.08174e-05
-0.000144174
-0.000274276
2.14375e-05
0.00021003
0.000152197
-2.26893e-05
-0.000147437
8.57537e-05
4.39675e-05
6.32403e-05
7.046e-05
6.3298e-05
-2.33034e-05
9.16789e-05
3.30147e-05
0.000178793
5.01316e-05
5.51117e-05
0.000149139
0.000125946
-2.66475e-05
0.000100196
5.4033e-05
0.000312883
8.51767e-05
0.000142789
-0.000239721
-2.56577e-05
0.000121792
-1.81694e-05
5.99147e-05
-6.85578e-05
0.000123347
0.000184193
-7.83239e-05
5.25746e-05
0.000277434
-0.000120714
2.14099e-06
0.000177814
0.000320441
0.000133191
8.56214e-05
0.000127124
1.81076e-05
9.51588e-05
8.39215e-05
8.72621e-05
8.41431e-05
-3.53889e-05
8.81475e-05
-4.78367e-05
-0.000123861
0.000139095
0.000226785
0.000191385
5.33111e-05
-5.70102e-05
1.78921e-05
-3.3762e-05
-2.65372e-05
0.000111047
0.000126246
0.000190105
-8.10067e-05
-7.19952e-05
9.3754e-05
0.000190675
0.000199272
-5.35472e-05
-7.851e-05
-3.76243e-06
0.00016895
0.000115725
0.000130466
7.5944e-05
0.000261768
0.000184649
0.000114861
8.58577e-05
-4.88774e-05
-0.000147467
0.000316057
0.000210015
-1.70053e-05
0.000209827
1.28965e-05
3.11602e-05
2.31286e-05
0.000157404
6.97485e-05
-4.58723e-05
0.000107665
-7.09104e-05
6.7621e-06
-7.84998e-05
0.00031924
-3.97852e-05
-0.000109585
0.000114365
0.000256738
-1.77372e-05
-7.74965e-05
2.72219e-05
1.43049e-05
4.88479e-05
0.000109681
-0.000106879
-0.000158538
0.000354482
2.75777e-05
-0.000119935
0.000228299
-7.86291e-05
5.62883e-05
-0.000150235
5.8951e-05
0.000202555
-0.000143903
-7.29429e-05
0.000235433
0.000118012
6.36155e-05
0.000202724
-0.000104758
0.000165122
0.000282926
2.80577e-05
-0.000178014
0.000164649
9.71961e-05
0.000107701
0.000140257
3.19179e-05
1.52376e-05
0.000129484
-2.50489e-05
8.77283e-05
-0.00020857
1.14243e-05
-5.9795e-05
-6.12213e-05
0.000103538
6.70982e-05
-2.5372e-05
1.04761e-05
-0.000104796
2.00277e-05
-0.000125599
-0.000189458
-1.78209e-05
0.000162088
-9.29903e-05
-1.34415e-05
0.000121229
-6.0495e-05
-0.000114343
-0.000204489
-3.86899e-05
3.16848e-05
-9.5665e-05
6.18107e-06
5.76077e-05
-2.37417e-06
-0.000179686
-1.21506e-05
-0.000125769
-3.54925e-05
-0.000218321
7.2726e-05
2.29224e-05
-2.00246e-05
-6.54964e-06
-6.24706e-05
0.000109127
-4.83292e-05
1.79945e-05
-1.12089e-05
-4.0965e-05
-2.0907e-05
-0.000113798
-8.15984e-05
2.45232e-05
-3.662e-05
-0.000113844
-1.633e-05
7.63894e-05
-0.000123437
-0.00015279
7.28793e-05
1.37016e-05
-2.11155e-05
3.48657e-05
-9.10359e-05
5.92356e-05
1.38974e-05
-2.16344e-05
-0.000137675
-5.4413e-05
6.14161e-05
5.12277e-05
-0.000119991
6.23062e-05
-3.75508e-05
-0.000134039
8.20728e-07
1.6037e-05
-0.000166159
8.41834e-05
-1.0078e-05
7.49435e-05
8.25804e-05
-5.92743e-05
5.94732e-05
-9.74106e-05
-3.0921e-05
5.08709e-05
2.52037e-05
3.61179e-05
-5.78006e-05
-5.76577e-05
3.86004e-05
-1.32001e-05
-0.000152132
-6.74366e-05
6.26699e-05
-2.78023e-05
-2.92532e-05
-8.95052e-05
3.26523e-05
-0.000150533
-1.59652e-06
-0.000117925
-0.000134339
-0.000106397
-7.18965e-05
-5.45745e-05
6.6542e-05
-1.4117e-05
-0.000124212
3.9719e-05
-0.00015475
6.37471e-05
-0.000111145
-9.98147e-05
-4.00387e-05
0.000137065
-2.61629e-05
5.71124e-05
-0.000177001
0.000127009
-4.86812e-05
-0.000252017
-2.86063e-05
-7.9827e-05
-0.000136552
5.19386e-05
3.91726e-06
-0.000109508
1.02225e-05
-4.34675e-05
-4.45554e-05
-9.9368e-05
-7.99273e-05
-9.9338e-05
6.51907e-05
0.000107119
3.31817e-05
0.000100828
1.52073e-05
-8.39608e-05
2.48639e-05
-0.000114203
-6.40062e-05
0.000169855
-7.47285e-05
-0.000159859
3.53428e-05
-4.68839e-06
-5.57532e-05
-0.000144926
-4.89713e-06
-0.000202893
0.000107126
0.00010804
-2.65922e-05
-2.57909e-05
-0.00019788
-8.74398e-05
8.79646e-05
2.45244e-05
5.33008e-05
0.000126568
-0.000121075
-9.57062e-05
3.10873e-05
-0.000123444
-8.71347e-05
-0.000129311
6.65297e-05
-5.39455e-05
-0.000108677
-4.68497e-05
9.14953e-05
-0.000110917
5.46281e-05
3.85414e-05
8.95568e-05
-3.47188e-05
-4.13193e-05
2.57982e-05
-3.1129e-05
-0.000186574
-1.32599e-05
0.000208434
-4.09549e-07
5.72394e-05
-0.000114286
-5.90086e-05
4.9879e-05
-9.8586e-05
2.16276e-05
-4.91943e-05
-6.02145e-05
2.23229e-05
-3.34023e-05
-0.000165164
-0.000125038
-4.12178e-05
1.60479e-06
-0.000154867
-4.61282e-05
-4.37184e-05
-0.000200723
-4.65382e-06
4.15139e-05
-1.43009e-05
-5.0372e-05
4.28746e-06
-6.76471e-05
-0.000190932
-0.000126302
-3.7904e-05
8.57282e-06
-6.99891e-05
-5.79129e-05
-7.20227e-06
0.00014136
-0.000155902
-3.55747e-05
8.51346e-05
-0.000104531
7.26299e-05
-0.000115773
-1.27335e-06
0.000140267
4.11695e-05
-9.47603e-05
-2.51812e-05
2.1677e-05
-2.8279e-05
-0.000134313
0.000128445
3.73933e-05
-2.23215e-06
-2.19929e-05
2.48302e-06
2.18628e-07
-1.05372e-05
8.45932e-06
9.8547e-05
-0.000286965
1.73078e-05
3.82217e-05
-5.81897e-05
-8.21025e-05
2.4084e-06
-0.000180237
-7.88056e-05
5.4975e-05
-1.38602e-05
9.84198e-06
-2.05799e-05
2.83238e-05
-2.55748e-05
-7.52757e-05
-3.49199e-05
-6.46157e-05
-9.90364e-05
0.000102559
-0.000208997
-0.000126467
-7.08211e-05
4.8428e-05
-4.85335e-05
-2.07835e-05
-2.74896e-05
-8.7257e-05
-1.47963e-05
-5.55587e-05
-1.38613e-05
-1.8802e-05
6.19418e-05
-0.000157071
-0.000104185
0.000169039
1.02263e-05
2.58558e-06
-0.000139771
4.48031e-05
0.000203373
-0.000112468
1.19626e-05
0.000122408
4.64963e-06
2.8801e-05
3.85983e-05
-2.98545e-05
0.000234412
9.3109e-06
-7.73384e-05
0.000230815
-6.27439e-05
-0.00012176
2.69448e-05
-6.5592e-05
-7.05731e-05
-3.55354e-05
9.03609e-05
6.86982e-05
4.00923e-05
-0.000214578
5.66801e-05
7.76128e-05
2.51159e-05
-3.96359e-05
0.000131746
2.38842e-05
-9.09464e-05
0.000117937
-6.78486e-05
-0.000108636
-0.000206813
8.86857e-05
-0.000103956
-6.51176e-05
-6.5956e-05
-0.000114599
0.000129407
-0.000151158
2.98852e-05
-9.2681e-05
0.00019511
6.22283e-05
-4.7158e-05
2.46094e-05
-2.65006e-05
-6.148e-05
0.000105012
-4.24751e-05
-7.29202e-05
4.87897e-05
0.000166181
3.99785e-05
8.29773e-05
-6.32239e-05
-2.93897e-05
-1.89675e-06
-3.38044e-05
2.77176e-05
4.94486e-05
1.85042e-06
-1.95315e-05
-8.29608e-05
-4.13139e-05
-8.99462e-05
-2.23217e-05
2.20014e-05
0.000158131
3.02899e-05
-0.000104435
3.62381e-05
0.00010907
-3.92214e-05
0.000135558
-5.75662e-05
-9.54375e-05
-0.000137335
0.000180758
3.12908e-05
5.06175e-05
5.77285e-05
0.000107745
-0.000156575
0.000140643
4.19283e-05
-0.00010352
-9.79064e-06
2.68454e-07
-5.42378e-05
-0.00019232
-6.57967e-05
7.80848e-05
0.000130956
-6.02107e-05
8.09369e-05
7.00179e-05
0.000144591
-0.000111506
4.64519e-05
8.42873e-05
0.000186242
1.01654e-06
0.000134505
6.6088e-05
6.00197e-05
8.19329e-05
0.000182433
-2.72492e-05
-3.76722e-05
-3.49984e-05
-0.000117991
3.90232e-05
-2.75706e-05
1.05782e-05
-2.45902e-05
-4.91585e-05
-5.54777e-05
-5.90156e-05
6.66383e-05
-9.03896e-05
3.64565e-05
-9.55855e-05
9.80429e-05
-0.000165907
-0.000183492
9.97005e-05
1.08422e-05
-8.7471e-05
0.000247195
-9.32247e-05
7.90453e-05
0.000120996
-0.000147508
0.000148498
0.00017706
-0.000111993
-6.4668e-05
-4.5035e-05
-1.5748e-05
-5.37105e-06
3.91089e-05
-0.000140025
-0.000191945
2.61382e-05
3.67018e-05
-6.82499e-05
7.16981e-05
-8.71258e-05
-3.18943e-06
-4.31859e-05
-0.000108559
2.25774e-05
-9.7247e-05
0.000114959
-1.66046e-05
-8.822e-05
2.24559e-05
0.00016193
8.97967e-05
-0.000156806
-0.00012437
-2.11279e-05
3.4869e-05
-0.000124171
5.16502e-05
-1.57859e-06
-0.000148651
8.90198e-05
-3.90046e-05
-2.26577e-05
2.9502e-06
7.12894e-05
4.39154e-05
6.63748e-05
-9.08435e-06
5.26041e-05
-6.72833e-05
-2.57415e-05
-0.000133071
0.000166866
7.3784e-07
2.54088e-06
5.50931e-05
4.95217e-05
3.87284e-05
-8.44756e-05
-1.21756e-05
-6.39972e-05
1.19291e-05
0.000153981
5.74494e-05
-0.000119691
-7.02229e-06
-8.69808e-05
0.000189253
-3.47919e-06
2.59369e-05
2.32799e-05
-5.17383e-05
-0.000118654
6.75221e-06
9.42281e-05
-0.000100937
-5.29373e-05
-2.60673e-05
-3.8267e-05
4.7373e-05
2.73639e-05
0.000111028
-3.05752e-05
-2.37178e-05
3.57223e-05
5.18383e-05
2.0192e-05
0.00017589
-9.10462e-05
-5.83548e-05
1.50693e-05
0.00014887
9.62373e-05
6.06148e-05
6.72656e-05
-1.40008e-05
-1.15964e-05
0.000103267
6.00524e-05
-1.79291e-06
-2.77511e-06
0.000111024
-4.75707e-05
4.35521e-05
8.18626e-05
-6.86664e-05
-0.00014971
1.72766e-05
-6.07437e-05
0.000214167
0.000156363
3.90991e-05
0.000108908
3.16422e-05
1.25833e-05
8.71043e-06
0.000184602
-0.000103335
8.07451e-05
7.51908e-05
9.15956e-06
-1.52026e-05
-4.6802e-05
0.000136485
-0.000135751
-6.7797e-05
1.95622e-05
1.78764e-05
6.85563e-05
-9.69511e-05
-0.00012026
0.000136728
-1.27575e-05
2.80794e-05
8.85956e-05
-4.57444e-05
0.000188852
1.79774e-05
-0.000111325
-2.33013e-05
-5.34855e-05
0.00016445
-5.86229e-05
-3.46296e-05
-8.81935e-05
0.000178172
-1.23528e-05
-2.11359e-05
-7.0848e-06
-4.12008e-05
7.74177e-05
-0.000106752
-0.000220851
7.76607e-06
2.53827e-05
-2.921e-05
-0.00011511
8.62307e-05
9.56042e-05
3.94889e-05
0.000100421
0.000103593
3.65586e-05
-5.91144e-05
2.80188e-06
0.000128083
-4.20214e-05
-3.40176e-05
-7.71941e-05
-6.36918e-05
-7.36574e-05
2.88022e-05
-3.33858e-05
-8.2507e-06
-1.27039e-05
-2.70827e-05
2.25434e-05
1.82572e-05
-0.000126421
-0.000148886
5.83121e-05
6.03218e-06
8.69833e-05
-6.01618e-05
0.000119428
-5.67827e-05
-0.000111838
1.07853e-05
9.59914e-05
0.000163064
-0.000251989
-3.16879e-05
0.00012221
-4.13933e-05
-1.19002e-05
-0.000101072
-4.60709e-05
2.63017e-05
-5.2124e-05
0.000132554
-1.08224e-05
-0.000129177
5.15362e-05
1.00059e-06
-9.58556e-05
1.84084e-05
5.07983e-05
7.01519e-07
-0.000137005
-8.76121e-05
-0.000112651
-2.58636e-05
0.0001014
-0.000120616
1.96856e-05
3.29083e-05
-7.07769e-05
0.000254073
-9.1542e-06
-0.000103288
-3.43667e-05
-0.000112677
-2.22351e-05
7.82209e-05
-0.000130344
4.02495e-05
-8.70714e-05
9.25506e-05
5.43011e-05
9.90711e-05
5.31632e-05
-4.47722e-05
-3.33189e-05
-0.000121974
0.000202341
0.000115979
-0.00010032
2.94831e-05
8.55726e-05
-0.000115482
-1.17455e-05
0.000122007
-0.000168212
6.95683e-05
6.32586e-05
4.69657e-05
7.55347e-05
-6.39251e-05
6.60431e-05
0.000251614
-1.6544e-05
1.31777e-05
7.58652e-05
6.27249e-05
0.000116708
8.37157e-05
3.70599e-05
7.05731e-05
-0.000110221
-2.54271e-05
4.8172e-05
-7.3044e-05
-6.3776e-05
1.87767e-05
-2.33884e-05
0.000104209
-7.31832e-05
-8.35916e-05
3.25346e-05
-0.000130389
4.03018e-06
9.15291e-05
6.92311e-05
2.05248e-05
-0.000150046
9.61919e-05
3.3449e-05
-8.42887e-05
2.37434e-05
-1.73223e-05
3.81316e-05
-5.15854e-05
-3.86864e-05
-0.000145905
-2.54996e-06
4.53792e-05
4.38537e-06
2.41842e-05
0.000184716
5.94859e-06
5.32463e-05
0.000147905
1.35395e-05
3.89334e-05
7.51772e-05
2.14763e-05
0.000196459
6.00261e-06
-6.73798e-05
-0.000179389
-1.35379e-05
1.82043e-05
-8.22318e-05
-2.67401e-05
-6.46722e-06
3.59165e-06
-8.01377e-05
5.61505e-05
7.60936e-05
2.67562e-05
-3.79282e-05
7.96281e-08
4.11004e-06
0.000173554
-8.33878e-05
-0.000114333
-3.96231e-05
-3.1027e-06
0.000118923
3.26312e-06
-5.55837e-06
0.000192868
8.88543e-05
-5.89568e-05
-0.00011878
1.62481e-05
-5.59194e-05
3.56057e-05
-0.000133627
8.51044e-05
6.5899e-05
-0.000144095
2.29329e-05
3.9109e-05
0.000162131
-7.75969e-05
-0.000213154
2.81006e-05
7.40747e-05
0.000114209
2.63695e-05
3.0905e-05
-7.95893e-05
-1.87428e-05
-4.88355e-05
-6.01267e-05
1.31254e-05
-0.000111717
-0.000103473
-2.35897e-05
-6.59665e-05
-0.00014017
-0.0001196
0.000118068
2.32016e-07
1.15361e-05
-8.32555e-05
-4.66865e-05
-0.000110528
2.10335e-05
6.07644e-05
-4.6314e-05
8.32584e-05
0.000128787
3.02744e-05
-5.29654e-05
-7.90518e-06
-3.53835e-05
-3.5631e-05
0.000111452
-0.000236571
-0.000123898
0.000142195
-5.37754e-05
-8.96514e-06
6.27246e-06
-7.92369e-06
4.56674e-05
-5.25748e-05
1.43645e-05
-0.000122812
-4.28711e-06
1.87294e-05
6.08648e-05
-0.000215418
-8.24298e-05
3.51062e-05
7.49944e-05
-3.40824e-05
-7.41695e-05
-8.20204e-05
-4.03774e-05
2.76163e-05
-4.99683e-05
-7.13714e-05
-8.11422e-05
1.55655e-05
0.000153883
0.000119239
9.28645e-07
0.000103048
3.94068e-05
-0.000169258
4.3324e-05
-4.2154e-05
8.29236e-05
1.20887e-05
0.000150407
-9.18726e-06
-4.65526e-05
7.03635e-05
9.29704e-06
0.000161977
-0.000164867
-0.000128299
-5.53484e-05
-4.2154e-06
-4.1707e-06
5.57839e-05
-1.36406e-05
-0.000103169
6.03168e-05
-8.05992e-05
0.000156919
-0.000132977
5.22762e-05
-7.08585e-06
-3.17809e-05
6.46864e-05
-7.82264e-05
4.55531e-05
-1.81411e-05
-7.97713e-05
4.78778e-05
-6.86035e-05
-6.3695e-05
-6.41074e-05
5.36467e-05
0.000281466
-0.000162667
2.20675e-05
2.28721e-05
-9.49285e-06
7.15572e-05
-5.60366e-05
0.000166976
-0.000152347
8.60803e-05
-3.46687e-05
1.01803e-05
-7.30308e-05
-1.50348e-05
4.77768e-06
-4.90845e-05
-7.40536e-05
-5.38463e-05
0.000243923
-9.13723e-05
-7.57198e-05
4.35278e-05
-0.000262244
3.96906e-06
0.000215181
-1.38467e-05
3.07905e-05
-9.39667e-05
2.71255e-05
5.5613e-05
4.46712e-05
-0.000172531
7.50379e-05
3.93309e-06
-9.90145e-05
-5.77876e-05
-3.26741e-05
-2.10479e-07
0.000124056
-8.10327e-05
0.000119183
2.37396e-05
1.39119e-05
-0.000210947
2.97151e-05
-3.40957e-06
-0.000126459
-2.29435e-05
-4.8033e-06
3.52018e-05
-0.000178615
-9.52332e-05
-7.45e-06
5.72833e-06
-0.000142505
-2.57324e-06
0.000167864
-3.10087e-05
-6.2866e-05
-9.85668e-05
-6.31302e-05
5.33317e-05
-7.60281e-05
-3.51107e-05
7.77711e-05
2.29825e-05
-0.00024101
-4.71505e-05
5.40181e-05
5.44242e-07
-0.000118399
2.60021e-05
-6.58024e-05
-8.59027e-05
-0.000107185
1.30502e-05
-2.10125e-05
-9.31739e-05
2.93395e-05
-6.74692e-05
-7.39023e-05
-8.61509e-05
-7.05714e-05
-7.55179e-05
0.000201846
4.24101e-07
1.66342e-05
3.39769e-05
5.79855e-05
9.7967e-06
3.28895e-05
0.000130115
-4.72424e-05
-3.59833e-05
4.82199e-05
-3.60352e-05
2.69418e-05
5.18314e-05
6.74996e-05
5.75345e-05
-8.94218e-05
-0.00010791
9.89959e-05
9.58962e-05
7.30564e-05
-5.29416e-05
-0.000101484
-2.74773e-05
-2.86299e-05
-8.97297e-05
-5.97445e-05
-3.17204e-05
5.02914e-06
7.67169e-05
3.61693e-05
2.30733e-05
6.30489e-05
-1.63985e-05
5.60901e-05
0.000105495
6.14109e-05
2.84009e-05
2.17896e-05
-4.79728e-05
0.000183458
-3.97811e-05
-9.76264e-05
-5.32354e-05
-3.82579e-05
0.000158758
-5.09296e-05
-2.13563e-05
-2.22753e-05
-3.32608e-05
6.66558e-05
4.6216e-05
-7.23385e-05
-0.000152678
3.72789e-05
7.38902e-05
-0.00012955
2.71018e-05
6.92633e-05
0.000148301
-0.000124608
-4.92331e-05
1.44269e-05
1.18599e-05
-9.28566e-05
-0.000106055
-1.59617e-05
-5.76666e-05
8.89292e-05
-8.17347e-05
8.59036e-05
8.26945e-05
-0.000161576
-5.11913e-05
-4.61069e-05
-6.96015e-05
-0.000147783
0.000116795
4.35676e-05
-1.72118e-05
0.000103215
-8.32017e-05
9.90473e-06
9.5249e-05
9.13487e-05
-0.000163108
2.56374e-05
-7.05593e-07
-2.15725e-05
-9.91147e-05
-1.85461e-06
2.95241e-05
-0.0001186
-3.8532e-05
0.000176519
-2.96814e-05
-7.40502e-05
3.65141e-05
8.04384e-05
-0.000128938
3.23304e-05
-8.68411e-05
0.000141169
0.000206106
-0.000115405
0.000199101
-0.000110428
-8.70577e-06
7.4181e-05
1.70107e-05
3.08135e-05
-4.53367e-05
4.329e-05
-5.87991e-06
-1.83589e-05
7.90679e-05
0.000109693
0.000166283
-0.000197914
-5.84177e-05
-7.57239e-05
-8.39024e-05
-4.22238e-05
-6.95045e-05
9.85246e-06
2.37885e-05
9.50769e-05
-0.000121041
-3.28792e-05
3.63684e-05
1.12278e-05
-7.40038e-05
-2.04616e-05
-5.52014e-05
-0.000150814
-0.00011517
-0.000141978
0.000175931
1.04269e-05
9.05301e-05
4.98088e-05
8.97325e-05
3.71877e-06
-3.99287e-05
8.16492e-05
-9.89733e-05
-6.51379e-05
4.55857e-05
0.000138629
-8.79955e-05
-3.45872e-05
3.21458e-05
-2.98722e-07
0.000120717
3.76471e-05
-3.88296e-05
-2.48756e-06
-3.38489e-06
-8.87818e-06
3.04256e-05
-0.000119833
6.91522e-05
-3.73228e-07
-7.4674e-05
0.000126098
-2.22713e-05
1.02475e-05
3.87731e-05
-0.00015538
4.67654e-05
4.99994e-05
0.000134827
0.000130105
-0.00012299
-2.63646e-06
-6.24048e-05
4.38818e-05
3.25355e-05
-0.000106208
0.000109589
6.85678e-05
8.48705e-05
-0.000121483
-0.000100643
9.48615e-05
-5.7735e-06
4.69219e-05
-0.000113169
-6.4829e-05
3.37891e-05
0.000115617
-0.000129131
6.19693e-05
1.57754e-05
-0.000123681
0.00016461
0.000234871
-9.80102e-05
2.76717e-05
2.76932e-05
-9.15425e-05
-8.95481e-05
0.000253545
4.68092e-05
8.73625e-05
-1.57171e-05
5.89411e-06
-7.75233e-06
-6.44847e-05
0.000132544
-8.98913e-06
-0.000101135
7.41174e-05
-8.76805e-06
5.54218e-06
-5.218e-05
-5.00493e-06
-0.000198522
2.81683e-05
0.000101331
-1.11272e-05
-7.38527e-05
-6.55417e-05
6.37821e-05
8.32684e-05
-1.32776e-05
-8.51329e-05
0.000169873
3.67295e-05
-0.000116709
-2.38265e-05
1.35188e-05
0.000155213
3.18475e-05
0.00010214
-6.19343e-05
-4.78427e-05
-4.94183e-05
-8.6386e-05
4.2142e-05
5.76207e-05
-2.64642e-05
-4.19782e-05
0.000143357
2.37598e-05
-3.36254e-05
-2.63485e-05
9.1135e-05
3.8052e-05
-7.10119e-05
3.08009e-05
-3.40504e-05
-0.000192801
-5.27547e-05
0.000137242
-1.02761e-05
0.000125455
-3.84066e-05
-5.58393e-05
-9.48971e-06
-0.000122336
8.29226e-06
-4.30768e-05
2.27507e-05
-6.58524e-05
-6.29914e-05
3.41495e-05
0.000131387
-5.12124e-05
5.7513e-05
3.20731e-05
-2.5711e-05
-6.74045e-07
2.59421e-05
-6.04456e-05
-4.40395e-05
-0.00019456
-6.06063e-05
1.83547e-05
1.22207e-05
-1.61065e-05
0.000104191
-9.83558e-06
-0.000106686
-9.4442e-05
4.16957e-05
-8.13111e-05
5.66314e-06
-6.5984e-05
-6.05338e-05
-0.000182706
0.000100057
-3.15437e-05
-0.000107656
-0.000190247
5.88096e-05
2.59213e-05
0.000156998
1.57341e-05
0.000119271
0.000138489
-0.000100246
0.000100572
-0.000114732
-0.000115545
8.30787e-05
1.09859e-05
-7.84225e-05
6.17872e-05
-7.02462e-05
5.63506e-05
-0.000133789
-8.17294e-05
-0.000124681
-6.55953e-05
0.00015471
0.000151822
-1.04896e-05
7.0121e-05
0.000113264
1.89793e-05
3.00549e-05
8.14594e-05
0.000120993
-6.03839e-05
7.70821e-05
-0.000175955
2.78293e-05
-2.73257e-05
6.15222e-05
5.33788e-05
-0.000112073
-3.93218e-05
-4.35142e-05
0.000223923
-2.55909e-05
0.000141582
8.28389e-05
-0.000188496
-0.000113516
9.79301e-05
0.000261086
9.01901e-05
1.85182e-06
-3.65562e-05
-5.70519e-05
1.9935e-06
0.000119591
-2.0307e-05
2.77899e-05
1.42265e-05
-4.28415e-05
-3.64577e-05
-8.36984e-05
1.16578e-05
-7.33056e-06
-7.45871e-05
-0.00015608
-0.000162299
-0.000101448
-0.000124916
-0.00014464
-8.71846e-06
-8.41857e-06
1.94832e-05
0.000107004
-0.00017544
-3.17115e-05
4.90089e-05
7.00362e-05
4.59247e-05
-7.32115e-05
8.06818e-05
1.96369e-06
-1.04918e-05
9.06824e-05
-3.52659e-05
7.35276e-05
4.79257e-05
-9.57556e-05
0.000135602
6.47252e-05
7.80608e-05
0.000172063
-4.66744e-06
5.08996e-05
5.1723e-05
9.36565e-05
-3.13944e-05
8.8878e-05
2.10439e-05
3.01359e-05
-6.62452e-05
2.95554e-05
-1.16697e-05
-3.84066e-05
7.43452e-06
3.1615e-05
1.19181e-05
-5.79221e-05
-0.000125508
0.000197711
-0.000102891
2.85775e-05
8.74163e-06
-1.4649e-05
4.30658e-05
-1.64593e-05
-0.000252605
1.06756e-05
7.18527e-05
0.000205147
-0.000156281
-0.000116468
3.77623e-05
-8.59008e-05
7.21952e-05
0.000216697
-5.84379e-05
4.97836e-05
7.13527e-05
2.92002e-05
4.31285e-05
-8.96824e-05
-0.000135366
-0.000100102
-3.62487e-05
6.76864e-05
5.05204e-05
-4.7527e-05
5.64154e-05
-3.59556e-05
-7.52893e-05
-3.05127e-05
-7.94244e-05
0.000143681
5.61913e-06
-2.18372e-06
-7.38089e-05
-4.65719e-05
6.21134e-05
0.000131015
5.10799e-05
1.38849e-06
-2.68701e-05
6.56756e-05
-6.42205e-05
1.77664e-05
0.000137712
-5.94549e-05
6.81859e-05
-2.73972e-06
-9.24915e-05
-3.63279e-05
5.1361e-05
-6.4996e-05
-0.000121658
7.27053e-05
0.00012505
-1.7461e-05
7.32054e-05
-5.97609e-05
9.25944e-06
-7.37431e-05
8.97675e-05
-4.01911e-05
-8.57958e-06
-5.49676e-05
1.28181e-05
6.83425e-05
7.30933e-05
0.000120603
-7.08729e-05
-0.000150005
0.000196906
3.05136e-05
1.16348e-05
0.000114012
-4.45041e-05
4.4218e-05
1.75071e-05
-0.000199783
-8.84298e-05
0.00010659
6.22333e-06
-8.8073e-05
6.22682e-06
1.6022e-05
5.65758e-05
-0.000173132
5.97832e-05
-3.21434e-06
4.68302e-05
-4.35921e-05
6.09742e-05
-2.49178e-05
0.000112847
-4.28451e-05
-0.000229569
-6.54459e-05
6.01442e-05
0.000101034
2.09026e-05
-8.20884e-05
-8.75872e-05
1.09687e-05
1.18823e-05
2.73815e-05
-1.60676e-06
7.30874e-05
0.000185191
1.30584e-05
-3.5209e-05
5.8051e-05
9.73337e-05
0.000126125
-8.45438e-05
-9.5892e-05
-0.00018989
7.85151e-05
-8.95552e-05
-2.52723e-05
2.41327e-05
-3.49421e-05
-0.000122746
-5.4576e-05
8.58095e-05
-1.45037e-05
0.00012737
-0.000192472
1.49773e-05
-0.000113796
-5.49054e-05
0.000167131
4.39328e-05
-6.01209e-05
7.08485e-05
0.000110929
-7.14386e-05
2.62335e-05
2.14723e-05
-1.44073e-05
6.22759e-05
3.12182e-05
5.34183e-05
-0.000127169
-5.24499e-05
-5.8976e-06
4.7521e-05
9.39446e-05
-5.27373e-05
-4.85452e-06
-0.00017546
5.85805e-05
0.000128654
-0.00010542
-1.07863e-05
-6.52709e-05
-1.00348e-05
-2.29572e-05
2.30646e-05
2.23431e-05
-7.38638e-05
-6.76094e-06
3.31707e-05
3.89456e-06
-4.73622e-05
9.55955e-05
1.20555e-05
-8.87234e-05
7.8215e-05
-0.000134136
0.000182512
9.73337e-05
-4.05599e-05
-5.0211e-05
-7.56087e-05
4.26217e-05
0.000141132
-1.81228e-05
2.0005e-05
-3.12771e-05
1.00954e-05
-0.000145969
6.04314e-05
-0.000103425
-1.66905e-05
6.67425e-05
-5.10454e-05
5.55501e-05
9.56925e-05
-0.000143586
-3.26778e-05
4.14788e-06
-6.55886e-05
-0.00013718
7.11546e-05
-5.00679e-06
-7.34872e-06
-6.50106e-05
0.000114519
-4.13556e-05
-0.000117286
4.6243e-05
8.69343e-06
5.08693e-05
-7.02098e-05
-7.23902e-05
6.29723e-05
0.000147862
0.000169067
0.000130986
6.08093e-05
-8.11417e-05
3.00015e-05
-9.11218e-06
9.76607e-05
6.22693e-05
8.15385e-05
-6.17481e-05
1.88723e-05
-2.10614e-05
3.78666e-05
7.13388e-05
-7.4976e-05
0.000120312
1.48279e-05
-2.78833e-05
-2.87178e-05
-8.62656e-05
0.000125278
5.60128e-05
-8.04561e-05
-9.26564e-05
3.64301e-05
-2.09064e-05
0.000129942
-0.000173726
4.00189e-05
-8.32675e-05
-3.6931e-05
-4.85408e-05
-9.57169e-05
1.11423e-05
-3.85671e-05
-3.36636e-05
-1.49659e-05
5.99213e-06
-3.35096e-05
1.75328e-05
-7.1737e-05
0.000199422
-0.000141616
-8.08549e-05
0.000135316
3.33516e-05
-0.00012528
-0.000133447
4.73853e-05
-2.13401e-05
-6.03392e-06
0.000110258
0.000240082
6.51506e-05
-0.00015955
-8.93843e-05
0.000167313
1.23433e-05
-2.67399e-05
1.91298e-05
3.04517e-05
1.93213e-05
0.000111539
-0.000100344
3.21134e-05
-9.79746e-05
7.29481e-05
0.000104763
2.22567e-05
-2.96428e-05
6.48603e-05
-0.000175772
-4.63149e-05
0.000146617
5.85499e-06
3.08094e-05
2.19403e-05
-9.95221e-05
-3.21306e-06
-0.000146678
-5.09219e-05
3.91003e-05
-2.74419e-05
8.82878e-05
0.000180089
0.000142001
-8.60577e-05
3.2776e-05
-6.52533e-05
-9.61294e-05
7.84051e-05
-8.96512e-05
2.98163e-06
5.81096e-05
3.4253e-05
-9.36077e-05
-5.68447e-05
-1.13301e-05
-0.0001583
5.15556e-05
0.000107807
0.000170425
-0.000120153
3.52189e-05
2.28534e-05
-5.8747e-05
6.52745e-05
-2.85394e-05
-4.72961e-05
-9.30085e-05
6.85658e-05
0.000108941
-5.19576e-05
-1.83238e-07
-1.54574e-05
0.00020476
-5.26527e-05
6.30299e-05
2.42656e-05
-8.97828e-05
2.3209e-05
-7.67561e-06
-5.38109e-05
2.45117e-05
0.000125899
-6.29778e-05
2.16912e-05
0.000124312
2.86604e-05
-2.77669e-05
-8.59898e-05
7.48341e-06
1.18719e-05
3.81881e-05
-2.98944e-05
-6.86152e-05
0.000144596
1.48393e-05
-3.10864e-06
-3.17858e-05
5.61061e-05
1.14135e-05
-0.000201164
-0.000121473
8.78354e-06
3.95282e-05
0.000128105
1.21654e-06
3.7004e-05
5.71832e-05
-9.69484e-06
-6.36356e-05
0.000109546
4.30502e-05
1.24678e-05
-7.7096e-05
5.6556e-05
-2.28856e-05
3.2034e-06
4.36757e-05
-0.000215066
9.43302e-05
-9.033e-05
0.000140991
1.35029e-05
1.35304e-05
-3.68078e-05
6.52263e-05
0.000193019
-1.97566e-05
-8.68634e-05
-6.13779e-05
6.40403e-05
4.66513e-05
6.81181e-05
-0.000114557
1.01603e-05
0.000148566
0.000230467
-3.14552e-05
1.46942e-05
-6.25604e-06
0.000116307
-4.02321e-05
-8.73351e-05
-5.31167e-05
-1.86058e-05
0.000115469
-1.32632e-05
2.63156e-05
-2.2372e-05
-9.8158e-05
0.000228127
9.61177e-05
4.7697e-05
8.631e-05
7.80784e-05
-2.29788e-05
-9.07186e-05
-0.000192273
-9.40207e-05
-3.01313e-05
5.69447e-05
6.04821e-05
-2.18584e-05
0.000210025
0.000148555
-0.000122527
-9.36352e-06
8.40852e-05
-1.412e-06
3.61501e-05
0.000171485
0.000216628
3.54799e-06
0.000161587
-1.71174e-05
0.000109768
9.50696e-05
-0.000161856
-0.000176415
-8.90234e-05
-0.000113683
6.6729e-05
2.77818e-05
-3.40735e-05
-6.25389e-05
-9.7889e-06
7.4402e-05
-2.45025e-05
0.000100414
-4.45807e-05
-5.64652e-05
5.85453e-07
-4.12439e-05
-5.1785e-06
-9.1876e-05
0.000107447
6.21678e-05
5.25754e-05
0.000113818
0.000156693
2.16905e-06
-8.65805e-05
3.74622e-05
-0.000220805
4.5324e-06
0.000119208
0.000137388
-9.41474e-06
-4.23784e-05
-0.00012181
7.59765e-05
6.55234e-05
2.71585e-05
-4.32883e-05
-7.83973e-05
-0.000102543
-0.000150183
0.000187527
0.000158315
-1.82423e-05
-1.05062e-05
5.64035e-05
-0.000143066
5.07201e-05
7.34058e-05
-4.31654e-05
-0.000119771
6.3092e-05
-2.96592e-05
7.65231e-05
-1.04362e-05
6.92124e-06
-8.92235e-05
-6.88201e-06
5.68363e-06
-0.000127718
-5.93835e-05
-3.2665e-05
6.84478e-05
4.43022e-05
-5.59096e-05
-7.00052e-05
-3.06278e-05
-2.01542e-05
0.00020558
7.9914e-05
0.000216011
0.000141633
-0.000194656
9.18203e-05
-3.46517e-05
-3.01432e-05
-2.75802e-05
2.41348e-05
9.1251e-05
0.000114664
-2.38261e-05
4.08771e-05
1.01356e-05
-1.9054e-05
-1.57721e-05
5.8336e-05
7.82355e-05
-8.74831e-05
-0.000112587
0.000111982
-8.40444e-05
0.000222142
-4.45298e-05
-5.90761e-05
-8.75513e-06
-7.47561e-05
-3.96918e-06
3.8206e-05
7.64173e-05
-9.61579e-05
-7.53022e-05
2.63558e-05
2.92121e-06
-8.94446e-05
-1.29376e-05
0.000140381
2.11794e-05
-8.26761e-05
0.000122201
-8.24418e-06
6.10866e-06
-0.000134503
-5.93517e-05
7.2452e-05
-5.20307e-06
-7.54254e-05
0.000187994
0.000170372
7.13938e-05
-0.000163568
-0.000118279
-0.000160129
-8.70484e-06
-1.35088e-05
9.73867e-05
0.000109874
-2.97646e-05
0.00029764
2.48443e-05
-0.000159145
7.4596e-05
-1.51636e-05
1.69246e-05
-7.81651e-05
-8.14818e-05
-2.35746e-05
-5.6233e-05
0.000108688
-1.35042e-08
0.000125418
-6.31318e-05
-2.28225e-05
-2.78139e-05
7.65277e-05
-2.63513e-05
-1.07987e-06
2.09362e-05
-3.17346e-05
-2.28503e-05
0.000103902
-0.00018178
6.88427e-05
5.4301e-05
-3.34902e-05
-0.000125796
6.09218e-05
6.73993e-05
-0.000156183
-0.000121011
-7.04025e-05
-4.06519e-05
8.54206e-05
9.93931e-05
-0.000113879
-6.55456e-05
-6.60075e-08
-0.000232837
4.38073e-05
0.000142165
-2.20374e-05
-4.59451e-05
7.47135e-05
0.00011421
-4.20382e-05
2.5695e-05
0.000109877
-8.24719e-05
-0.00011563
0.00015875
2.13643e-05
-0.00011515
7.20783e-05
-3.76347e-06
-0.000121704
-8.72472e-05
-4.76742e-05
9.08995e-05
-2.49839e-06
-0.000103013
-6.59656e-05
0.000131822
5.58619e-05
-5.53082e-05
1.94011e-05
-4.55622e-05
-2.95481e-05
-9.36706e-05
1.79316e-05
-9.73623e-05
0.000201848
9.88493e-05
-0.000186384
-3.90518e-05
0.000112991
7.48017e-05
4.7776e-05
-1.70153e-05
-5.72412e-05
8.0805e-06
-4.492e-05
4.42262e-05
-6.37546e-05
-0.000110923
5.68927e-05
1.78608e-05
-0.000117152
-7.66719e-05
-8.42428e-05
1.23165e-05
-3.68776e-05
1.01003e-05
6.99607e-05
-0.000215393
-4.24579e-05
6.1878e-05
0.000148409
1.61701e-06
-5.94368e-05
0.000175579
-7.74828e-05
-3.28614e-05
-0.00010267
1.54823e-05
0.000113933
-1.77531e-05
3.85026e-05
0.000116989
-1.53224e-05
-1.70666e-05
-5.90166e-05
9.92042e-05
-0.000112755
5.67585e-05
0.000124522
-8.52461e-05
-3.14031e-05
1.73864e-05
-2.89587e-05
-0.000132787
-4.09343e-05
0.00014985
-5.92262e-05
-4.16732e-05
-0.000116215
-1.96189e-05
-1.93666e-05
-5.74451e-06
-3.11085e-06
-6.25879e-05
8.15932e-06
0.000101966
0.000146862
0.000131187
-2.42519e-05
-0.000190677
0.000181699
7.718e-05
-3.83923e-05
9.18853e-05
-4.76239e-05
9.42079e-06
-3.6651e-05
3.89613e-05
-5.33002e-05
-3.78953e-05
6.72594e-05
8.3415e-05
-0.000128736
1.94223e-05
-6.42857e-06
-7.46538e-05
-0.000128191
1.19216e-05
-8.51671e-05
-6.25657e-05
1.81319e-05
0.000137821
9.01112e-05
7.10383e-05
-0.000244251
0.000199659
-7.41177e-05
-9.08761e-06
-4.20718e-05
4.97008e-05
4.54744e-05
2.83325e-05
6.60473e-05
-3.28489e-05
2.50071e-05
-1.43102e-05
-0.000131345
3.95218e-06
-3.47248e-05
-3.71521e-05
0.000129188
-2.56748e-05
2.63214e-05
-8.11601e-05
-0.000150132
-3.84687e-05
0.000171793
-5.39531e-05
0.000172409
-2.27902e-05
2.49001e-05
-4.96577e-05
1.15649e-05
0.000133132
3.34404e-05
-3.94671e-05
4.75929e-05
2.9348e-05
-1.01107e-05
-3.23509e-05
2.94112e-06
7.35545e-05
-4.64756e-05
0.000117156
-3.62534e-05
8.3904e-05
-5.56274e-05
3.34824e-05
-6.67092e-05
3.58685e-05
-1.45542e-05
-4.17423e-05
2.55568e-05
-6.54863e-05
-7.70537e-05
7.05691e-05
-3.39698e-05
-6.65403e-05
-0.000107711
-0.000127943
9.25055e-05
-3.70957e-05
-0.000115512
-0.000125031
4.48915e-05
-5.13995e-05
-7.62984e-05
0.000112357
9.62315e-05
-2.35029e-05
9.85287e-05
-3.79864e-05
4.07163e-06
0.000178567
-0.000146576
-0.000199997
-6.17622e-05
-1.27202e-05
6.34702e-05
-0.000195481
0.000115781
7.54781e-05
3.8743e-06
3.9537e-05
0.000155504
9.36212e-06
3.09881e-05
-1.29943e-05
-6.48691e-05
-0.000103673
-4.84616e-05
-1.27626e-05
0.000155463
6.58628e-05
5.11422e-05
-6.09979e-05
-0.000116613
-5.19976e-05
1.25376e-05
1.15808e-05
-4.09414e-05
3.03329e-05
4.44227e-05
4.19135e-05
8.37165e-05
-4.30741e-05
-7.84595e-05
1.12632e-05
0.000240249
-4.50405e-05
-9.97973e-05
5.63429e-05
8.0422e-05
4.52286e-05
4.01447e-06
-9.013e-05
-2.00747e-06
-9.4744e-05
-0.000102733
2.48887e-05