# vtk DataFile Version 1.0
Net Charge Density
ASCII
DATASET STRUCTURED_POINTS
DIMENSIONS 256 128 1
ORIGIN 0 0 0
SPACING 0.15625 0.15625 1
POINT_DATA 32768
SCALARS rhonet float
LOOKUP_TABLE default
-0.000129349
7.13312e-06
0.000316382
0.000250002
0.000202345
-0.000306699
-0.00014759
0.00014232
0.000131389
0.000161459
0.000302056
0.000271618
6.00946e-05
4.25517e-05
-3.98792e-06
-5.46491e-05
8.81923e-05
7.43878e-05
-0.0002562
0.000214007
-0.000183247
0.000308824
0.000349842
0.000151977
4.7819e-05
0.000122433
0.000129283
0.000272343
9.03886e-05
0.00022659
5.32944e-05
-0.00011096
5.4422e-05
0.000282336
0.000355126
-4.57895e-05
2.07259e-05
-2.12735e-05
0.000245441
-0.000125356
0.000107764
-3.23842e-05
0.00017406
0.000300708
-2.98556e-05
-3.41985e-05
0.000433646
0.000230481
0.000386107
0.00011169
0.000343897
-0.000104218
0.000210624
-0.000172646
9.75761e-05
6.40224e-05
0.000312461
0.000313945
0.000155782
-0.00018924
0.000219233
-5.57131e-05
0.000108224
8.81152e-05
0.00010592
0.000197547
-0.00020604
-0.000100816
0.000178865
-0.000187791
-3.34551e-05
8.50091e-05
0.000305012
-0.000219097
-0.000129372
0.000327714
0.000311489
8.21865e-05
-5.44183e-05
-2.06521e-05
-2.47686e-05
4.51218e-05
0.000178617
-0.000241085
7.54931e-05
0.000452837
0.000520139
0.000471387
0.000128079
1.5747e-05
0.000296477
0.000178067
5.12041e-05
0.000191521
0.000104039
6.88718e-05
6.72915e-05
0.000147239
-1.13334e-05
4.50652e-05
-0.000126531
0.000392961
9.4171e-05
8.53827e-05
0.000266323
0.000120511
8.16216e-05
7.49473e-05
0.000279029
8.71117e-05
1.06331e-05
-3.12219e-05
6.06697e-05
0.000131509
-0.000172393
7.79256e-05
-3.95856e-05
6.32007e-05
3.16894e-06
8.25322e-05
-5.0391e-05
-9.24245e-06
-1.93173e-05
0.000201001
0.000256345
-0.000228666
1.71277e-05
0.000328246
0.000137782
7.17815e-05
3.28731e-05
-5.6301e-05
-7.37587e-05
0.000262098
0.000169386
-4.8636e-06
0.000365961
-6.48942e-05
0.000122875
-1.52907e-05
-0.000118719
0.000117279
0.000148194
-0.000146705
0.000291462
0.000204774
7.18436e-05
-7.56942e-05
9.13244e-05
0.000229712
7.02275e-06
0.000302502
0.00035819
3.87484e-05
4.93006e-05
2.53267e-05
0.000352875
1.20417e-05
-4.40842e-06
0.000356808
0.000236079
0.000174162
0.000124233
-0.00014525
4.46356e-05
1.37556e-05
0.000325983
0.000185478
5.67875e-05
8.5304e-05
0.000164035
0.000109572
-2.16917e-05
0.000135135
0.000170056
0.00024794
0.000125931
-2.49649e-05
9.91777e-05
-0.000188462
0.000347904
0.000271061
0.000159949
-0.000100432
0.000164019
0.000151481
0.000326074
-5.78924e-05
-0.000374358
9.51691e-05
4.80653e-05
-5.80295e-05
0.000212985
0.000297245
0.000154256
0.000303268
0.000118057
4.38542e-05
6.67872e-05
0.000246984
0.000391641
3.16042e-05
0.000197887
-5.72337e-05
0.000128075
-0.000160571
-4.30003e-06
0.00033007
0.000234562
-0.000172426
9.55489e-05
0.000270082
0.00015667
8.91836e-05
0.000378175
-7.01821e-06
0.000157299
0.000181656
-0.000251002
-0.000218688
-5.52899e-05
0.000159596
-0.000108054
-0.00020673
5.22929e-05
0.000400072
0.000316768
0.000203816
0.000165301
-9.33635e-05
0.000244334
-3.33287e-05
4.41481e-05
-0.000270802
0.000101744
0.000170162
0.00025264
0.000387886
0.000381586
0.000470148
-4.08187e-05
-4.95685e-05
-0.000174681
0.000325365
0.000107561
0.000352442
0.000261835
0.000298064
1.7026e-05
8.9563e-06
-8.08071e-05
1.11982e-05
0.000107632
-0.000190972
-8.51572e-05
-0.000230987
-0.000156588
-2.15303e-05
-2.42621e-05
-0.000144735
-0.000208488
-0.000171526
4.43088e-05
5.28146e-05
5.97517e-05
-6.89162e-05
3.88805e-05
0.000270135
-0.000166824
-6.82407e-05
-4.20571e-05
-0.000221943
6.38789e-05
3.05719e-05
-0.000209102
-0.000104555
-0.000150711
-0.000163417
4.88947e-05
-5.93368e-05
-0.000205524
5.41784e-05
-1.93078e-05
-0.000112466
-0.000183645
-4.92063e-05
-3.90186e-05
-0.000149189
6.15348e-06
0.000139499
-5.24345e-05
-0.000162205
1.84666e-05
-5.9648e-05
1.34907e-05
-0.000119005
-5.48607e-05
-4.92376e-05
-0.000147677
-0.000139046
-0.000199154
-5.10681e-05
-4.15038e-05
-8.43542e-05
0.000216
-3.22296e-06
0.000156931
-3.51041e-05
0.000122003
4.40007e-05
-0.000218007
-6.50338e-05
0.000232858
-0.000152368
-0.000242819
-0.000290633
-7.55808e-05
9.2913e-05
9.07108e-07
-0.000218188
-0.000227901
0.000193128
1.78365e-05
0.000193462
7.15643e-05
-3.96374e-05
1.70886e-06
-8.36967e-05
8.03691e-05
-7.14364e-05
1.77501e-05
0.000122888
-0.000125402
3.19465e-05
1.20428e-05
-9.90354e-05
-0.000124962
-0.000125547
-0.000148788
-0.00010225
-3.65569e-05
5.34344e-05
0.000142181
-3.67464e-05
-0.000381164
-0.000193946
-0.00010034
-3.45494e-05
-3.04885e-05
4.70411e-05
0.000145534
-7.46383e-05
-3.18552e-05
8.20716e-05
-0.000261807
-3.46226e-05
-0.000134159
-8.19098e-07
9.69474e-05
5.10468e-05
0.000246462
-6.92804e-05
-6.55635e-05
-0.000242315
-0.00012601
-0.000128651
-0.000131788
-8.18823e-05
-0.000195606
-0.000103277
5.82899e-05
0.000115135
0.00011618
4.86071e-05
-0.000425679
6.98547e-05
-7.17537e-06
4.63872e-05
-0.000122987
6.64376e-05
2.21236e-05
-0.000175688
-3.73888e-05
-3.16137e-05
-0.000167904
2.73042e-05
0.000135028
7.11406e-05
-0.000176292
4.09423e-05
0.000124608
8.23173e-06
-5.93683e-06
-0.000232315
-5.29416e-05
0.000104164
-0.000111004
-0.000258725
-0.000173314
-0.000176046
-0.00011462
-2.664e-05
0.000122334
0.000148481
-6.20873e-05
-0.000105073
-0.000162453
-4.18795e-05
-3.22463e-05
-0.000222518
-4.94323e-05
-0.000219021
6.29777e-05
2.67907e-06
-3.53474e-05
-0.000122001
-1.48411e-05
6.61536e-05
-3.69246e-05
4.10463e-05
4.66164e-05
-0.000264841
-3.17232e-06
6.77584e-05
1.85862e-05
0.000191299
9.36566e-05
9.69413e-05
-8.00525e-05
-6.02652e-05
-9.03253e-05
-0.000205344
-4.01225e-06
-0.000171267
-8.77732e-05
-4.86068e-05
9.88401e-05
6.93698e-05
-0.000102687
-0.000424947
-0.000188929
1.40565e-05
-6.80345e-05
-0.000177792
-0.000209513
-0.000119771
-0.000129401
0.000119478
0.000147749
-3.51153e-05
-0.000204303
6.26361e-06
6.04325e-05
-0.000204252
-3.91214e-05
-0.000164041
-0.000141596
-0.000144348
-0.000430745
-6.49652e-05
2.54606e-05
9.83172e-05
-5.76972e-05
3.07749e-05
-8.01908e-05
-4.86728e-05
4.3544e-05
-8.7464e-06
8.79263e-05
-1.68883e-05
-0.000134858
-0.000146013
6.99284e-05
0.000127487
-0.000209201
0.000139147
-7.32951e-06
-2.07778e-05
-0.000169555
0.000102148
2.24139e-05
0.000100025
-0.000171133
-7.42532e-05
4.50923e-05
-0.000188277
-0.000107574
1.37638e-05
-1.76049e-05
-0.000103722
-8.15424e-05
2.70617e-05
-0.000148362
-0.000148827
-0.000147205
-8.87946e-06
-4.69843e-05
-1.88724e-05
-0.000128813
3.44213e-05
-6.28447e-05
-0.000215356
-0.000192813
-0.000124773
-3.7312e-05
-4.78746e-05
0.000109769
-4.1743e-05
4.51208e-05
-8.21335e-05
-5.00471e-05
-0.000213533
-4.81789e-05
4.50101e-05
5.22688e-05
-1.22264e-05
-7.27375e-06
-4.6587e-05
6.85476e-05
-0.000257883
8.1241e-05
0.000176177
2.50112e-05
-5.08088e-05
0.000138886
-0.000100378
-0.000166983
-8.18749e-05
0.000185166
0.000216909
0.000308733
0.000240631
0.000238437
0.000239416
-9.27646e-05
-0.000210806
-0.000212462
9.32139e-05
4.23648e-05
-1.74288e-05
-9.13396e-05
3.16772e-05
2.72507e-05
-8.67473e-05
-6.61968e-05
-1.62253e-05
1.71592e-05
0.000131196
0.000221933
6.47187e-05
6.50715e-05
-0.000157334
-2.19331e-05
2.309e-05
-0.00012401
-0.000187706
6.36028e-05
-1.92975e-05
-7.3978e-05
-0.000222838
-0.000162859
6.66932e-05
4.43031e-05
5.54377e-05
1.61955e-05
-0.000159502
-0.000124081
5.7416e-07
-1.51985e-05
-5.55505e-05
7.63284e-05
0.000230975
0.000126659
-9.39067e-05
0.00014152
-0.000121117
-0.000103021
0.000260437
0.000198262
0.000283972
-7.78936e-05
4.7709e-05
3.30382e-05
-0.000159414
0.000102324
-0.000140754
-0.000219493
-0.000121862
-8.66918e-05
-9.41965e-05
-0.000107896
0.00018217
0.000179703
4.36574e-05
3.10543e-05
0.000339131
-5.44121e-05
9.79463e-05
0.000126863
-0.000169723
2.23534e-05
-4.05717e-05
-0.000161136
-0.000151814
7.20927e-05
4.94382e-05
-1.95946e-05
6.21227e-06
-2.49094e-06
-8.84756e-06
-4.84495e-05
0.000173641
1.73512e-05
-4.92344e-05
-0.000117591
-0.000184438
0.00011726
-2.74236e-05
4.34382e-05
1.69005e-05
0.000181029
9.90131e-05
3.26508e-05
0.000308254
4.20416e-05
-5.09992e-06
3.77417e-05
0.000204304
-3.09562e-05
0.000141147
3.26901e-05
3.9942e-05
-0.000250781
-9.08124e-05
9.21224e-05
9.51564e-05
-0.000189341
-9.36091e-05
1.72345e-05
6.11823e-05
0.000119425
0.000226724
-1.6324e-05
-6.79286e-05
-0.000114535
-6.78897e-05
-2.43359e-05
-5.86507e-05
-0.000123439
-0.000209926
-1.57738e-05
3.99976e-05
0.000376907
4.59438e-05
0.000125272
7.26921e-05
-7.30779e-05
1.00937e-05
-6.29807e-06
-2.69976e-05
-4.2077e-05
0.000279399
-0.000279726
-1.32746e-05
6.93381e-06
-0.000197227
-0.000156737
4.9515e-05
3.44176e-05
0.000120111
7.08922e-05
-0.000199269
4.48601e-05
-5.23273e-05
-8.24021e-05
-0.000191897
-0.000115845
-0.00015885
0.000237287
3.20554e-05
0.000172132
0.000398432
9.5715e-05
-0.000100918
-0.000267412
-0.000126929
6.90432e-05
2.5548e-05
9.19705e-05
-7.58392e-05
-7.27297e-05
-0.000131779
0.00017489
8.64948e-05
-4.55043e-05
-0.000151669
-0.000213464
0.00012027
9.31686e-05
3.2273e-05
5.28877e-05
6.10505e-06
-4.47233e-05
-4.10958e-06
1.79396e-06
-3.1229e-05
-0.00013698
0.000187748
-1.08292e-05
-0.00016195
-0.00011219
-3.6797e-05
2.88128e-05
0.000111073
-0.00022965
-0.000202781
0.000165284
1.84698e-05
6.24e-05
-0.000128019
-0.000125417
0.000117951
0.000235972
-7.83603e-06
-0.000176031
-7.05824e-05
-0.000157544
0.00019154
-0.000114525
-0.000135527
-0.000113127
-0.000164805
-2.84391e-05
0.000104058
9.19781e-05
0.000140445
0.000130227
7.09266e-05
-0.000167202
-0.000149968
-0.000130977
2.80655e-05
0.000174196
7.29114e-05
-0.000138954
0.000241315
-8.4532e-05
7.95724e-05
-0.000356223
7.73213e-05
0.000133768
0.000145507
0.000131925
0.000133548
-0.000114644
-0.000194634
6.57769e-05
7.46513e-05
-0.000128777
-8.89923e-05
0.000234878
0.000175599
5.74718e-05
-3.25354e-05
-5.03433e-05
0.000168241
9.7143e-05
-4.79375e-06
-0.000106996
0.000210379
-6.78684e-05
-8.69695e-05
-5.16735e-05
-1.1137e-05
-5.72746e-05
-0.000204431
-0.000167626
2.51353e-05
-0.000171397
9.61152e-05
2.57926e-05
-2.16516e-05
0.00018703
5.85472e-05
-7.83056e-06
0.000129372
-2.65954e-05
0.000102959
-0.000235089
4.18739e-05
-0.000113961
-8.3779e-05
0.000207795
-2.1885e-05
-0.000118868
0.000401124
-3.15846e-05
-4.35007e-05
-6.43277e-05
5.4893e-05
-7.04222e-05
7.23233e-05
8.24735e-05
-0.000102327
-0.000135697
-8.30359e-05
0.000103123
-0.00023577
5.74483e-05
5.09267e-05
9.92636e-05
0.000191953
-9.29856e-06
4.43861e-05
5.89815e-05
-0.000131721
-0.000294814
-0.000134241
-0.000159989
0.000177782
-0.000213407
3.84124e-06
4.81864e-05
0.000140268
-0.000112954
-9.49551e-05
5.1051e-05
2.62004e-05
-0.00019155
-0.000150016
-0.00017525
6.4866e-05
0.00012023
0.000241423
2.80215e-05
-7.15265e-05
-4.29745e-05
3.73469e-05
-1.33981e-05
0.000165051
0.000163073
-7.70494e-05
-0.000179869
3.15757e-05
-3.17208e-06
-0.000252366
-8.15507e-05
7.03796e-05
1.21383e-05
-4.87338e-05
9.4441e-05
5.9354e-05
-6.47979e-05
6.2672e-05
3.0423e-05
-0.000199943
-0.000110465
8.57717e-05
-9.09098e-05
-0.000230341
5.68656e-05
-0.000276975
-3.58457e-05
1.84204e-06
1.35263e-05
5.40051e-06
-2.38679e-05
2.24938e-05
-0.000120331
4.026e-05
-0.00017202
3.12085e-05
-0.000148374
-2.16685e-05
0.000126999
4.08309e-05
0.000128593
0.00012798
3.23177e-05
0.000305807
1.01752e-05
-7.76584e-05
-0.000251318
0.000175052
5.86883e-05
0.000105398
6.11716e-06
0.000158678
-0.000148176
-7.10229e-05
-3.9059e-05
-0.000212915
-0.000160463
-0.00012222
-5.93489e-05
4.8134e-05
-4.03241e-05
0.000124339
1.68529e-05
-3.94646e-05
0.000202559
0.00010756
0.000118939
-6.24086e-05
-4.16622e-05
6.93874e-05
9.8212e-05
0.000287125
8.10802e-05
-0.000203695
-2.47109e-05
0.000203646
-0.00011818
-0.000270107
-0.000121539
-2.43073e-05
-2.70121e-05
-7.08028e-05
-1.39058e-06
9.4793e-05
-4.11555e-05
-0.000241485
0.00013526
0.000140963
1.546e-06
-6.01461e-05
-2.82752e-05
-0.000107024
-5.04636e-05
-0.000101102
9.95506e-05
-0.00015473
8.23177e-05
-1.28848e-06
5.73735e-05
-9.55781e-05
-0.000120211
5.16999e-05
-0.000127055
4.07279e-05
0.000149054
-0.000148531
-0.000201741
5.00899e-05
0.000155812
0.00024344
0.000251591
2.41646e-05
0.000112803
2.30126e-05
0.000170689
0.000195355
-0.000180635
-0.000252205
-2.0622e-05
4.69778e-05
0.00015624
2.9064e-05
8.38401e-05
-0.000148441
0.000137416
0.000132232
0.000106258
1.93029e-05
0.00010389
8.35868e-05
1.69605e-06
-6.00491e-05
0.000128417
1.95444e-05
0.000129885
1.87664e-05
7.98961e-05
0.000107113
-0.000203225
0.000147733
0.000161218
-7.91155e-05
-1.77348e-05
-6.15837e-07
0.00012438
-0.000127511
-1.65624e-06
0.000232627
0.000137974
0.000188811
-0.000216022
3.40157e-05
0.000266413
2.61639e-05
0.00020612
-8.88481e-05
3.15243e-05
-2.73014e-05
-0.000104514
-0.000135117
-5.3475e-05
-7.89886e-05
3.90923e-05
0.000121383
-6.0141e-05
0.000100584
-0.000115394
-6.13775e-05
-7.49056e-05
9.09246e-05
0.000140189
-9.07931e-05
-9.56811e-05
-6.45481e-05
7.61187e-05
0.000129755
0.000164128
0.000179548
-0.000110168
0.000103778
0.000176275
-5.47379e-05
-7.13798e-05
-3.5513e-05
-0.000149271
1.03551e-06
-4.20937e-05
-5.95587e-05
-1.40206e-05
0.000276018
7.02823e-05
-7.96482e-05
3.90504e-06
0.000160214
0.000177198
4.76327e-05
-0.000116452
-0.000189096
-0.000143143
-0.000141606
8.0592e-06
-6.92558e-05
-7.17639e-05
-0.000140112
-0.000217533
1.08941e-05
0.000134365
-3.59665e-05
-0.000240799
3.05368e-05
7.72867e-05
0.000104693
0.000139184
7.07514e-06
-1.85831e-05
-4.32088e-05
-9.12154e-05
5.48235e-05
0.000297079
0.000182452
-8.27922e-06
0.000131154
1.258e-05
-0.00015202
0.00010662
0.000144905
-0.000165894
-0.000228653
6.88474e-05
9.78047e-05
0.000202007
-4.79365e-05
-8.20367e-05
-0.000153875
3.49183e-05
0.000113998
-7.28001e-05
-7.96351e-05
4.52184e-05
3.63152e-05
-7.13444e-05
-6.9337e-06
0.000157243
3.40587e-05
-0.000247934
-0.000134018
-2.51627e-05
-0.000125566
-6.74743e-06
5.03924e-05
-0.000121146
-1.20399e-05
-1.23595e-05
0.000140076
2.33913e-05
-0.000157604
0.000133177
0.000197948
-0.000130053
0.00012919
0.000250749
2.75394e-05
1.60048e-06
-7.98788e-05
4.48819e-05
-5.64903e-05
3.47574e-05
-0.000159849
-0.000175697
-7.3085e-05
-0.000114739
0.000152936
-7.79873e-05
-0.00011165
-9.13278e-05
-6.15657e-05
9.83188e-05
-9.2875e-06
4.53369e-05
6.07444e-05
0.00017241
-0.000255728
9.64375e-05
0.000295253
-0.00016408
5.78372e-05
4.45282e-05
-0.000124058
-0.000145605
0.000159867
-8.20553e-05
-7.94361e-05
1.39846e-05
9.95181e-05
-4.92777e-05
8.48016e-06
-1.3115e-05
-8.95597e-05
-6.28536e-05
-0.00014445
-2.07757e-05
-2.1156e-05
-4.03348e-05
-0.000239972
-0.000137645
0.000152908
-7.61377e-05
-1.66617e-05
-2.71295e-05
0.000235345
-0.000169906
-0.000193991
2.3823e-05
3.55025e-05
6.3781e-05
0.000122081
0.00012657
5.57848e-05
-0.000203921
-0.00017518
-4.95221e-05
-0.000129771
3.93388e-05
-3.99e-05
1.78767e-06
3.12144e-05
-3.47688e-05
-0.000170179
5.50973e-05
-0.000265675
3.64345e-06
8.19315e-05
7.67887e-05
-0.000271545
-0.000137872
0.000263725
0.00025372
5.22146e-05
5.23736e-05
0.00022075
-4.29554e-05
-0.000117742
8.63881e-05
0.000105392
5.72065e-05
-5.49858e-05
0.000244273
-5.97129e-05
0.000146229
-0.000130835
-8.12917e-05
3.84194e-06
0.000132779
3.92233e-05
-0.000181661
-8.14637e-05
-0.000206808
0.000167528
4.74204e-05
0.00013521
0.000322335
-4.79843e-05
-1.23109e-05
-9.35319e-05
0.000168482
0.000254747
8.70199e-05
-8.4531e-05
2.07729e-05
-0.000164742
-7.27985e-05
0.000128885
-0.000278014
-7.03328e-05
3.35276e-05
0.00016638
0.000153909
-1.32865e-05
4.72467e-05
0.000165691
1.64958e-05
0.000142871
-2.3909e-05
-3.37362e-05
1.89586e-05
-1.88344e-05
-4.27244e-07
2.88829e-05
-4.67326e-06
-0.00011572
3.88044e-05
-0.000191423
8.94206e-05
-1.16046e-05
-5.64985e-05
9.66305e-05
0.000174559
-0.000166112
-0.000228541
0.000145033
0.000117591
-9.04462e-05
-6.62627e-05
-0.000115823
2.84822e-06
0.000240169
-4.00561e-05
0.000217583
-0.00010569
-0.000231604
-0.00014578
-0.000161967
-2.21176e-05
0.000106573
-2.5898e-05
0.000142162
-0.000293396
0.000119213
-7.14383e-06
-0.000130123
-4.08276e-05
0.000134281
0.000173119
0.000141722
-0.0001071
1.05674e-05
2.04863e-05
-0.000124786
-0.000294073
-0.000306937
7.11337e-05
0.000145239
5.26304e-05
-0.000285509
-7.88714e-05
0.000145735
2.05905e-05
4.43102e-05
5.5471e-05
-3.2149e-05
0.000136394
3.36934e-05
-8.85981e-05
-6.95884e-05
-0.000147836
1.73358e-05
0.000147889
1.67963e-05
7.00159e-05
-4.15869e-05
-9.62216e-05
5.53234e-05
0.00019266
0.000127812
0.000337512
-3.94831e-05
-8.11568e-05
-0.00014776
-0.000355103
-2.09026e-05
-6.89763e-05
1.92574e-06
0.000104213
0.000234973
-0.000183522
0.000128891
0.000256775
-5.24564e-05
-6.15139e-07
-6.1221e-05
-0.00012131
-0.000180174
-5.27131e-05
5.24535e-05
9.74546e-05
5.69657e-05
3.14612e-05
2.30364e-05
-1.57737e-05
-0.000267863
6.52507e-05
-4.90109e-05
-3.71288e-05
-7.27661e-05
-1.48369e-05
-0.000113494
8.31527e-05
-9.77123e-05
7.29221e-05
2.80326e-05
4.85278e-05
0.000177815
-0.000108692
-0.000151689
5.94666e-05
-9.454e-05
-6.95768e-06
4.32492e-05
0.000304909
2.25342e-05
-4.42197e-05
1.64734e-05
0.000109062
-0.000195396
-8.53502e-05
-6.53887e-05
3.89031e-05
-1.05659e-05
4.5397e-05
-1.90877e-05
2.6562e-05
-0.000127
3.9679e-06
1.31399e-05
-5.93043e-06
-2.30246e-06
7.96439e-05
0.000101602
0.000185541
9.92338e-05
-0.000196279
-8.92044e-05
-9.10694e-06
-0.000153666
-8.05936e-05
-0.000113803
-6.93488e-05
4.32902e-06
-0.000105115
-0.000148692
0.000148545
7.78612e-05
0.000140085
-9.43814e-06
-8.28572e-05
-2.19933e-05
-7.8338e-05
-6.73551e-05
0.00020415
0.000124312
-8.92279e-05
2.88112e-05
7.96949e-05
-0.0001007
0.000190913
2.02344e-05
9.30849e-05
-5.79597e-06
0.000189117
-7.62187e-05
-0.000352092
5.46779e-05
4.57717e-05
-0.00013771
-0.000198039
-0.000221486
-7.08879e-05
-0.000143032
-7.78518e-05
-9.41171e-05
0.000211618
0.000147305
-5.78561e-06
2.03078e-05
0.00017819
3.40486e-05
-0.000149733
-0.000228101
0.00017007
0.00011129
0.000101585
0.000174432
-3.40814e-05
-1.05668e-05
-1.30001e-06
-8.46758e-06
-0.00026879
3.2781e-05
-8.08239e-05
-4.79021e-05
4.55024e-05
-8.90101e-05
1.34491e-05
4.14776e-06
3.37759e-05
-0.000245328
-0.000172072
0.000126778
6.84798e-05
0.000110099
-6.91483e-05
8.20969e-05
-9.10924e-05
-0.000236745
-2.55865e-05
-7.24422e-05
-0.000119031
0.000107508
-5.45853e-05
9.28188e-05
-0.00016085
-0.000113556
0.000110153
-0.000185999
-1.6403e-05
5.74039e-05
0.00025299
0.000100438
-6.99213e-05
7.50867e-06
6.16636e-05
8.04152e-05
-3.45428e-05
-0.000217802
-4.38257e-06
4.47207e-05
-5.23145e-05
-0.000232682
3.02854e-05
-0.000203855
2.27771e-05
4.9537e-06
-4.10419e-05
-0.000248019
0.000120268
-1.01964e-05
-0.000193195
-3.96285e-05
-4.65863e-05
-3.57251e-05
-9.05206e-05
-0.000110026
5.86233e-05
-0.000192485
0.000216599
9.37876e-05
-8.16432e-06
-7.69512e-05
-0.000121619
6.35011e-05
-2.03135e-05
0.000182784
-1.54357e-05
-0.000222028
-3.97472e-05
-7.33727e-05
-7.78297e-05
-0.000105439
3.31157e-05
-7.64416e-05
1.77989e-05
8.14435e-05
9.99722e-05
-8.66215e-05
-0.00010625
0.000224378
0.000223718
-7.85068e-05
6.90502e-05
-0.000262823
-3.11475e-05
2.93646e-05
-0.000190152
4.1244e-05
-3.16703e-05
-6.15556e-05
-0.000137796
-0.000118864
0.000151187
9.39593e-05
4.51035e-05
0.00021845
-2.26414e-05
-7.52661e-05
0.000126346
0.000232013
0.000104134
0.000229425
4.19135e-05
0.000181045
-0.000110438
1.9706e-05
-4.43282e-05
-0.000182792
-4.00203e-05
0.0001089
0.000115506
0.000229312
-1.16643e-05
-8.06364e-05
4.43986e-05
-1.53529e-06
-0.000258767
-0.000138624
-6.98278e-05
-0.000197429
-0.00017476
-0.000104605
-1.0153e-05
-7.2416e-05
-7.88784e-05
1.10563e-05
6.68564e-05
4.03633e-05
-0.000116338
5.34304e-05
-2.97553e-05
7.11589e-06
0.000168841
-1.25705e-05
-5.55043e-05
-1.09538e-05
3.78485e-05
5.65394e-05
-0.000168073
-0.000140902
-5.55817e-05
0.00012724
1.85247e-05
0.000138148
9.91999e-05
0.000195001
0.000126233
-0.000133743
-2.49407e-05
-4.59203e-05
-3.30876e-05
-3.28863e-05
-0.000141339
-0.000193918
3.01505e-05
0.000432492
5.81858e-05
-2.4714e-05
-0.000109478
2.79755e-05
-6.08371e-05
0.000140638
-8.16737e-05
-3.45754e-07
-0.000112389
0.000102654
0.000304768
-4.05e-05
5.38797e-05
-0.000241059
-0.00014285
6.16e-05
7.13347e-06
-0.000132723
-0.000221532
-0.000155539
0.000198684
0.000164918
0.000323918
0.000333881
9.23057e-05
-0.000199202
0.000210266
3.07449e-05
-5.76632e-05
-8.39659e-05
0.000111156
-0.000166602
2.26441e-05
-3.87166e-05
-7.9839e-05
5.70132e-06
-0.000187736
-0.000158302
1.20583e-05
3.65195e-06
0.000149181
-4.73442e-05
-0.000139489
0.000145165
0.000149944
0.000174932
-3.89079e-05
-0.000136785
-4.55666e-05
8.66896e-05
0.000237402
7.42441e-05
-0.000104248
-7.3459e-05
0.000152091
0.000179673
0.000192246
3.71635e-05
-4.15993e-05
-0.000203294
8.62434e-05
-0.000134428
0.00016872
0.000220077
1.17071e-05
-0.000172487
-1.6494e-05
0.00011051
-1.11484e-05
4.69458e-05
3.33958e-05
6.98316e-05
0.000102793
0.00010432
-4.39102e-05
-0.00012152
0.000131952
1.93703e-05
-0.000136084
2.9991e-05
8.50167e-05
-0.000110597
-0.000104229
-0.000139622
-6.23489e-05
8.79045e-05
-0.000171457
-6.05733e-05
0.000291329
0.000151438
0.000185165
-0.000180666
0.000176135
4.0072e-05
1.55804e-05
-2.04758e-05
6.2447e-05
0.000293301
-2.68855e-05
8.45344e-05
-4.15603e-05
-6.74743e-07
-0.000125477
-3.76296e-05
5.21516e-05
-0.000109513
-6.50192e-05
-0.000132518
3.86519e-05
3.45104e-05
-0.000280617
-6.04098e-05
0.00019306
0.000149328
-2.36959e-05
0.000383879
0.000197555
1.11145e-05
0.000177113
-9.29174e-05
-0.000241401
4.88107e-05
3.71055e-05
-0.000241484
-7.16231e-05
-3.48706e-05
-8.25257e-05
-0.000295138
-7.96929e-05
-0.000242174
0.000189423
-9.42718e-05
0.000138496
-7.62816e-05
-0.000172429
6.60605e-05
-0.00022764
-0.000125329
0.000143552
-2.96589e-05
5.45261e-05
0.000111355
0.000120736
-0.000157971
-9.03052e-05
1.28988e-06
9.8682e-05
7.34192e-05
4.36192e-05
0.000235992
0.000237709
-0.000127326
9.27353e-06
0.000277087
-2.42761e-05
3.92516e-05
-2.88017e-05
4.63907e-05
9.14079e-05
-1.13018e-05
-0.000340933
5.34595e-05
-3.32873e-05
3.77946e-05
6.61851e-05
6.14827e-05
-4.00448e-05
-8.83735e-05
9.31864e-05
0.000169952
-8.31878e-05
2.3602e-05
3.14217e-05
7.76895e-05
-2.48466e-05
-3.06768e-05
-6.80077e-05
4.32495e-05
0.000283255
9.69075e-05
9.83732e-05
-9.02715e-05
1.95968e-05
4.94054e-05
9.3241e-05
-3.90247e-06
-0.000259568
9.21371e-05
0.000123339
-0.000103882
4.77235e-05
-0.000101323
-1.00163e-05
-2.88307e-05
-6.9336e-05
0.00025629
3.37824e-05
-0.0001534
-4.25242e-05
-9.16169e-05
-4.51111e-05
-3.4509e-05
-2.04679e-05
-2.44406e-05
0.000118379
-0.000105824
-0.000135806
-0.000118906
0.000228736
-9.04055e-05
0.000136585
8.04691e-05
0.000100313
0.000232188
-6.18962e-05
-7.82054e-05
0.000114666
-0.000119561
-7.66328e-05
-0.000115364
-2.01247e-05
4.8068e-05
-1.15066e-05
-4.37383e-05
0.000110059
0.000151867
-0.000113098
5.85681e-05
-7.17933e-06
8.4165e-05
7.50271e-05
-8.39592e-05
-9.06825e-05
-0.000145255
7.74331e-05
-0.000107651
1.56753e-05
5.27576e-05
-7.43207e-05
0.000258488
-3.30138e-05
5.39809e-05
-0.000270825
-0.00011146
-6.07781e-06
7.07489e-05
8.94381e-05
-0.000128504
4.35294e-05
-0.000183147
1.51342e-05
1.52196e-05
8.09802e-05
0.000153755
-6.91506e-05
-0.000139274
-0.000222155
8.21101e-06
3.3721e-05
-7.16087e-05
3.48396e-05
0.000154123
-1.08461e-05
7.88432e-05
0.000129773
8.52997e-05
-7.26463e-05
-4.29259e-05
-0.000161574
-0.000204066
3.90037e-05
0.000192521
1.52646e-05
1.04522e-05
-0.000135071
-0.000189897
-3.55176e-05
-5.95306e-05
0.000199712
0.000236776
1.8557e-05
-2.63914e-06
-7.75575e-05
-0.000278612
-7.87213e-05
0.000180476
0.000299586
-5.24092e-05
-2.2846e-05
-1.58469e-05
1.94344e-05
1.62334e-05
-6.41856e-06
-0.000235506
-3.66807e-05
-3.45305e-05
-5.65852e-05
-0.000125706
-4.00752e-05
0.00020936
0.000142738
3.85867e-05
-0.00010067
4.35817e-05
4.36975e-05
0.000169759
3.64162e-05
-6.46543e-05
8.62611e-05
-9.92243e-05
-2.39527e-05
2.79106e-05
-4.16894e-05
-0.000104749
1.72539e-05
0.000152437
0.000174222
4.20788e-05
0.000186091
-4.35335e-06
-7.05679e-05
-6.16924e-05
3.08856e-05
0.000225608
-0.000239892
-3.67919e-06
2.04958e-05
5.9727e-05
7.44482e-05
1.6888e-05
-5.3827e-05
-7.70728e-06
0.000146762
2.82859e-05
-0.000173722
6.59477e-05
0.000259461
-2.00676e-05
1.93614e-05
0.000167195
0.000110284
-8.61641e-05
4.94209e-05
-0.000153443
-0.000233193
-2.78873e-06
6.79479e-05
-3.56031e-05
0.000134566
-1.75167e-05
0.000234634
0.000118513
-1.721e-05
-6.94031e-05
-0.000188229
-0.000162197
-3.41806e-05
1.79382e-05
-7.12539e-05
9.0407e-06
2.43933e-05
0.000107549
0.000126967
9.06978e-05
-2.35692e-05
3.44081e-05
-0.00014312
-1.82963e-05
0.000155707
0.000270392
9.27637e-05
-8.57674e-05
-9.7435e-06
-0.000166742
0.000111228
-0.000162683
9.90776e-05
0.000183418
-4.54341e-05
-0.000290429
0.000102186
0.000143502
5.09005e-05
-7.6034e-05
0.000125638
-0.0003187
0.000258158
-7.43328e-05
6.48022e-05
9.47225e-06
0.000205285
0.000120032
-0.00015857
0.000135282
0.000164339
-4.55121e-05
4.36748e-05
0.000204321
2.94063e-05
-9.38029e-05
-5.30385e-05
1.61832e-05
-8.11105e-05
4.65446e-05
-0.000148758
4.30518e-05
0.000149407
-0.00018738
-4.87536e-06
0.000191382
-0.00011235
-9.81533e-06
2.70293e-06
-0.00032763
-0.000100182
-0.000181057
-0.000146503
0.000162158
2.57173e-05
3.81185e-05
4.84788e-05
-7.66602e-05
-1.43994e-06
0.000121912
0.000113894
0.000185436
-6.37192e-05
5.8449e-05
3.15696e-05
0.000135832
-3.17988e-05
5.26175e-05
0.000118205
-4.38911e-05
3.4345e-05
9.61745e-05
0.000160792
-0.000206981
-6.35945e-05
-4.36412e-05
0.000154149
-0.000124371
-0.000107389
0.000244954
-0.00012468
-0.00024742
5.53336e-05
-5.20281e-05
5.89308e-05
-0.000162518
-1.63555e-05
9.04945e-05
-5.54954e-05
0.00018986
-0.000142477
-0.000171866
-5.7664e-05
4.22716e-06
-8.57194e-05
0.000140969
-7.74502e-05
-0.000223152
-1.08079e-05
-0.000114402
0.000157744
-4.24185e-05
0.000209753
0.000116145
0.000139987
7.21909e-05
-9.2308e-05
-9.28423e-05
0.00015285
0.000299076
-4.08862e-05
-5.44726e-05
-0.000156711
7.1395e-05
7.81496e-05
0.000182134
-8.03833e-05
-0.000104293
-0.000132336
0.000156665
3.4755e-05
-2.97865e-05
0.000188594
-1.51782e-05
-4.47205e-05
-6.61635e-06
-9.60407e-05
-1.27909e-05
-4.56278e-05
6.75881e-05
-0.00015966
0.000102432
-6.08782e-06
-4.00182e-05
-0.000265731
-1.62004e-06
-0.000112412
-8.25524e-06
0.000130128
0.000220711
0.000140663
0.000102801
8.26977e-05
4.39575e-05
4.78097e-05
-7.86679e-05
8.59024e-05
8.59472e-05
5.19874e-05
5.55788e-05
-2.38536e-05
2.85725e-05
-0.00020846
3.71407e-05
7.83231e-05
-6.50205e-05
-0.00023866
4.92181e-05
-5.00018e-05
-7.64964e-05
8.92417e-05
4.44222e-05
0.00028032
0.000259091
-0.000131644
-0.000131836
0.000318631
-5.75539e-05
-3.62362e-05
-3.50096e-05
8.18027e-05
2.97102e-05
-0.000180032
-0.000294006
-8.72705e-05
-0.000168316
-9.16176e-05
0.000112056
0.000219254
1.79282e-05
0.000219086
0.000216103
-7.14e-05
0.000120169
-0.0001008
-7.46294e-05
6.74574e-05
-0.000111288
0.000135705
-0.000152339
5.63415e-05
-9.75835e-05
-6.01789e-05
-7.50199e-05
8.22941e-05
0.000276908
5.35576e-05
6.36643e-05
5.75586e-05
2.99823e-05
-2.82968e-05
4.62518e-07
-3.41634e-05
-6.2387e-05
-0.000135544
-7.20897e-05
5.30542e-05
4.6049e-05
0.00013368
7.74183e-05
0.00010789
-0.000149773
9.09427e-05
-0.000225161
7.30336e-05
1.20706e-05
-0.000202649
-8.83222e-05
-8.78328e-05
-1.13361e-05
6.36848e-05
-7.24336e-05
-0.000268517
-0.000124464
9.1314e-05
-0.000218735
-3.7228e-05
0.000213055
5.48706e-05
0.000105594
-0.000159622
-9.37039e-05
-3.79169e-05
-8.81962e-05
-4.53244e-05
3.30141e-05
4.71482e-05
5.53383e-05
-0.000159992
-0.000200066
7.23288e-07
-4.5043e-05
0.000107212
0.000126627
0.000244338
3.36246e-05
-0.000148641
-0.00015343
1.99904e-05
-4.83296e-05
1.67503e-05
-6.7617e-05
4.06405e-05
-6.36035e-05
-0.000100083
-9.79321e-05
-0.000282244
0.000186601
0.000205356
-0.000231988
-9.31669e-05
0.000137147
7.79934e-05
-0.000116197
0.000126177
-4.514e-05
4.19978e-05
0.000147872
0.000226897
0.000115559
-0.000122574
-0.000203951
0.000233718
6.66454e-05
-7.20634e-06
-0.0001657
-0.000111647
-0.000155755
-4.14683e-06
1.08595e-05
0.000155227
-4.96649e-05
0.000243091
8.30387e-05
-2.22605e-05
2.61673e-05
-5.94682e-05
-5.7263e-05
1.13184e-05
-4.99679e-05
-0.000240689
-4.2125e-05
2.88712e-05
-9.94792e-05
-4.03549e-05
-0.000159852
-0.000184777
0.000206275
0.000121332
-6.17102e-05
-0.000182899
5.36945e-05
5.25718e-05
0.000104668
8.51401e-05
-1.68164e-05
-0.000191742
8.36118e-06
3.52738e-05
0.000102906
-0.000127429
7.66853e-05
0.000217518
0.000133264
-0.000131926
-0.000303176
6.99481e-06
9.63352e-05
-0.000106339
-7.48313e-05
-0.000119437
-5.7907e-05
3.32162e-05
0.000173007
-7.45137e-05
7.50005e-05
5.63019e-06
3.16268e-05
0.000251586
-4.45917e-05
2.47762e-05
-2.12702e-06
-4.11607e-05
-0.000177752
8.51038e-05
8.47816e-05
9.98962e-05
0.00010833
4.16219e-05
6.99861e-05
0.00025563
0.000268373
5.00586e-05
-0.00019104
-0.000106625
-1.97615e-05
-8.34384e-05
1.14811e-05
-0.000120646
-0.000166873
-0.000178439
9.79881e-05
-1.31738e-05
-0.000165306
-1.69207e-05
-6.77397e-06
5.55663e-05
1.35833e-05
-9.96317e-06
6.67467e-05
-7.66146e-05
0.000303352
0.000124352
-0.000190472
-9.43969e-05
0.00030301
7.65701e-05
-1.55005e-05
-0.000162806
0.000142878
0.000188937
-1.44222e-05
-0.000265929
-7.26681e-05
5.6834e-07
-1.81939e-05
4.99771e-05
-0.000124036
-0.000228487
-3.22156e-05
-0.000112184
0.000176227
6.17731e-05
0.000111646
-5.29713e-06
8.73847e-05
2.54181e-05
-3.50354e-05
0.000240444
2.23349e-05
0.000176609
7.97885e-05
-8.75435e-05
-9.5875e-05
-9.11603e-05
0.000130762
-4.58923e-05
0.000127567
5.74472e-05
3.3253e-05
0.000213116
0.000133245
1.41421e-05
3.87868e-05
0.000142569
-5.20679e-05
-4.56992e-05
-6.7367e-05
-0.000105671
-0.000350002
-0.000311605
-0.000144521
9.28098e-06
-4.85796e-05
-0.000117544
-0.000138199
-0.000112238
0.000130713
-0.000144864
7.35932e-05
-0.000185541
-0.000171539
0.000372438
6.36885e-06
0.000113364
-6.19926e-05
-0.000158228
-0.000130323
-4.37733e-05
-0.000108288
-5.17219e-05
1.47461e-05
2.00181e-05
9.08321e-05
8.39324e-05
-6.42302e-05
7.44972e-05
0.000107149
0.000147459
-0.000153764
-0.000151898
-0.000105523
-4.92042e-05
0.000141814
0.000200117
4.13724e-05
0.000217053
-0.000173298
-6.90952e-05
-1.37085e-05
-1.52549e-05
-5.31486e-05
-2.87495e-05
0.00017046
-6.48038e-06
-5.24743e-05
2.85297e-05
-5.3947e-05
-0.000133862
-0.00016638
-0.000254979
1.29454e-07
0.000353991
0.000155522
3.24068e-05
7.75809e-05
-1.09485e-05
6.79085e-05
3.21611e-05
-0.000124607
-9.11423e-05
9.32638e-05
0.000128085
1.89904e-05
-0.000174593