# vtk DataFile Version 1.0
Net Charge Density
ASCII
DATASET STRUCTURED_POINTS
DIMENSIONS 256 128 1
ORIGIN 0 0 0
SPACING 0.15625 0.15625 1
POINT_DATA 32768
SCALARS rhonet float
LOOKUP_TABLE default
-0.000188509
-0.000105679
0.000145834
0.000304252
0.000180788
-0.000305778
2.07908e-05
3.59896e-05
7.93934e-05
0.000150661
0.000356153
0.000285133
0.000263837
-6.88606e-05
-0.00013449
-1.54319e-05
0.000290028
5.16649e-05
8.57429e-05
-0.000171607
-0.000191715
0.000295212
0.000190446
7.99991e-05
-5.52014e-05
0.000247007
0.000251379
6.03902e-05
0.000159004
3.54071e-05
-0.000126802
-2.07901e-05
0.000133438
7.81149e-05
0.000356855
-3.38225e-05
0.000249267
-6.54708e-05
-0.000105766
0.000188652
-1.499e-05
0.000127043
0.000237372
0.000192835
-2.58116e-05
0.000192101
0.000219273
0.000150161
-4.06279e-05
0.000164134
0.000224625
7.87388e-05
0.000134277
0.000119072
-8.98854e-06
-5.34875e-05
0.000179318
0.000160724
-5.11887e-05
0.000221138
6.95329e-05
5.08206e-05
0.000133668
0.000106331
-8.22428e-05
0.00025435
-4.25533e-05
0.000143836
7.5878e-05
-0.000179963
-0.000150973
2.89184e-05
0.000189135
-7.08038e-05
0.000252123
0.000240831
0.000205769
-4.00792e-05
3.63805e-05
-0.000135537
-0.000241218
0.000134584
0.00015622
5.73008e-06
0.00026939
0.000283889
0.000277604
0.000236178
0.000176612
8.64865e-05
0.000216416
-5.54026e-05
0.000101025
0.000226588
0.000143237
-3.19036e-05
-6.84074e-05
0.000279372
5.81939e-05
0.000372559
-0.000135013
0.000457156
0.00022805
-0.000100384
9.69272e-05
0.000232409
4.84579e-05
3.46351e-05
0.000128291
-2.13064e-05
-3.87512e-05
-0.000163963
0.000135815
6.0734e-05
-3.91939e-05
0.000106924
4.90434e-05
0.000112979
-0.000153694
-7.44581e-05
-4.19754e-05
0.000197223
-4.35598e-05
2.7083e-05
0.000213888
-0.000129268
0.000222518
0.000251009
0.000239275
0.000116868
2.74868e-05
0.000130333
0.000130287
0.000212669
-9.77226e-05
0.000287035
0.000521525
-3.79885e-05
-0.000134011
-6.0105e-05
6.91253e-05
-8.35429e-05
9.48093e-05
0.00011765
0.000103735
-7.54537e-05
0.000267226
-3.34749e-05
0.000321484
0.000110804
0.000176359
-2.67221e-05
0.000349795
0.000408069
0.000109491
0.000135447
0.000129262
7.81675e-05
-1.81681e-05
0.000163636
0.000259177
0.00014467
-6.51354e-05
5.1511e-05
0.000115603
1.64754e-05
0.000102588
0.000156701
0.000273107
-0.000146118
2.18253e-05
-2.47654e-05
-4.11076e-05
0.000258911
-0.000143852
0.000193471
8.37607e-05
5.87394e-05
7.37365e-05
-0.000198378
0.000248662
0.000175388
0.000153993
-7.97927e-05
-7.567e-05
0.000358154
0.000216464
7.42412e-05
-8.93942e-05
0.000209738
0.000425451
4.62406e-05
0.000131116
-0.000144671
0.000120825
0.000338327
0.000293528
-4.63589e-05
0.000202086
0.000104724
0.000401342
6.36402e-05
2.76647e-05
0.000213505
0.000211062
-0.000194562
6.28241e-05
-4.96536e-05
0.000223301
0.000177519
-1.19052e-05
-6.93306e-05
0.000265457
0.000292407
0.000212852
3.52595e-05
3.50743e-05
0.000122454
1.56685e-05
-0.000112875
-6.618e-05
-4.25668e-05
0.000147776
-5.13351e-05
0.000154769
0.000283602
5.18874e-05
-5.46873e-05
0.00018088
6.37901e-05
-8.33836e-06
-0.000120472
0.000127099
0.0003043
-0.000119593
0.000137974
0.000382128
0.000276209
0.000190249
5.52748e-05
9.56701e-05
-4.70262e-05
0.00029593
0.00010338
-8.38942e-05
0.000209755
0.000408591
0.000101274
8.53176e-05
5.2602e-05
-0.000229505
5.57628e-05
-1.78253e-05
-4.90018e-05
1.39131e-05
0.000119592
-0.000164291
-1.46122e-05
-4.87251e-05
6.80357e-05
-0.000200932
-0.000146401
-7.87346e-05
3.99463e-05
0.000254923
5.30079e-05
-3.90671e-05
1.37412e-05
7.96791e-05
-0.000114424
-0.000279698
-0.000161461
-8.17206e-05
2.29664e-06
-3.90017e-05
-6.98285e-05
-9.73203e-05
5.69774e-05
-0.000118188
-0.000216916
-0.000181936
1.51168e-05
6.56554e-05
-7.74793e-05
-4.79477e-05
9.72115e-06
-8.19033e-05
-7.5405e-05
1.50881e-05
7.63302e-05
0.000182085
-0.000236421
-2.79503e-05
-0.000107542
7.29403e-05
6.54543e-05
-0.000150345
-3.09267e-05
-0.000222556
-7.88559e-05
-0.000216121
-4.57715e-05
8.04043e-05
-6.46402e-05
-1.73959e-06
-4.10638e-05
7.87857e-05
9.79702e-05
4.29928e-05
2.62099e-05
-0.000238158
-5.98301e-05
5.25939e-05
3.82151e-05
-0.00010369
-6.03481e-05
-0.000144146
6.37935e-05
-7.95937e-05
-0.000200482
-6.88784e-05
0.000205549
-0.000204494
0.000103023
3.27344e-05
2.06667e-05
4.33271e-05
-6.09793e-05
4.6796e-05
-0.000115896
-8.93334e-05
9.77357e-05
-3.66486e-05
0.000138852
-8.77073e-07
-1.07526e-05
-0.000290498
-0.000145123
-0.000136576
0.000153182
-6.06562e-05
-0.000130028
0.000122094
-0.000104284
-9.03589e-05
-4.18567e-05
-0.000201489
-0.0001211
7.41137e-05
-7.21442e-05
-1.76835e-06
-6.12529e-05
0.000127189
-9.28573e-05
-7.13185e-05
-0.00018634
-6.97675e-05
-9.99067e-05
5.58968e-05
-3.12531e-05
0.00020836
0.000113393
-0.000165691
-7.60311e-05
-0.000145697
-9.01667e-05
-5.35238e-05
-0.000208148
-1.79484e-05
-0.00017304
-3.36878e-05
3.84367e-05
5.71201e-05
2.04835e-05
-0.00027525
-3.94118e-05
-5.08241e-05
-6.08268e-05
0.000118689
4.67182e-05
4.39279e-05
2.27289e-06
-6.30502e-05
-2.49366e-05
-0.000283903
0.000103741
-0.000203822
0.000216036
-7.26486e-05
-1.52311e-05
-8.44526e-05
-0.000232524
5.209e-05
-9.33214e-05
-5.70546e-05
-0.000200092
6.93711e-05
8.13382e-05
2.32633e-05
-0.000117488
-0.000230874
-0.000249024
0.000235623
-3.17639e-06
0.000166719
-1.8168e-05
-0.000180021
-0.000239972
-5.16898e-05
-2.99335e-05
-3.95947e-05
-0.000247732
-0.000113311
-8.15816e-05
1.12043e-05
8.78875e-05
-6.62473e-05
0.00012262
-0.000239304
8.62104e-05
0.000164065
-4.66099e-05
4.82978e-05
-0.000201284
0.000127885
8.5995e-05
0.00019815
-4.30819e-05
0.000167714
0.000117995
-0.000236953
-0.000200863
-1.08392e-05
6.97796e-05
1.15709e-05
-2.52606e-05
-3.52275e-05
3.2522e-05
-0.000176369
-0.000257264
-0.000192811
-1.65332e-05
-4.68808e-05
-0.000192669
-0.000209642
-0.000157109
-0.000119856
-0.000150755
6.60694e-05
0.000154104
-7.73505e-05
-8.00076e-05
-8.65796e-05
-0.000160432
-0.000241153
-0.000139232
8.58093e-05
-0.00014867
-0.000218339
-2.77939e-05
2.3643e-05
-0.000254301
5.02199e-05
6.19025e-05
9.19553e-06
-0.000161827
0.000119661
-0.000169341
0.000220194
-5.48549e-05
-0.000114958
-0.000114055
-6.43954e-05
4.79491e-06
-3.66466e-05
7.81621e-05
-4.69935e-05
-1.95345e-05
-5.44277e-06
2.33934e-05
-4.96972e-05
3.34239e-05
-0.000104264
0.000146553
-6.93271e-05
-8.99467e-05
-0.000174797
-9.82783e-05
-9.8634e-06
-8.63738e-05
-0.000156901
-0.000119731
9.74687e-06
4.36772e-05
-4.64497e-07
-0.000120291
4.53787e-06
8.68749e-06
-3.07139e-05
-2.63925e-05
-9.03755e-05
-0.000189736
-0.00013679
-8.82371e-05
-9.93202e-05
0.000101654
-9.12659e-05
-7.60158e-05
-2.76719e-06
-2.26551e-05
3.43227e-06
-0.000208338
-2.08134e-05
0.000209782
-4.41893e-05
-7.00047e-05
-2.14158e-05
-0.00023484
-2.20211e-05
-5.72538e-05
2.30118e-05
9.31458e-05
0.000130901
-0.000114402
3.09343e-05
-5.11431e-05
5.51902e-05
-0.00010627
-1.51973e-05
0.000170952
0.000385328
0.000168648
7.79084e-05
-3.6631e-05
0.000143677
-2.33224e-05
-0.000121872
-0.000115969
-0.000104296
2.03727e-05
-5.03676e-05
5.48882e-05
4.70362e-05
-0.000165683
-0.000153659
0.000254499
-7.52572e-05
-0.000110068
0.000111031
0.000103649
5.88696e-05
-7.39975e-05
-2.94495e-05
6.14851e-05
-1.87079e-05
2.23932e-05
1.74253e-05
-0.000162957
-0.000193816
-0.0001767
-0.000168585
0.00012176
0.000158476
8.40023e-05
-0.000105965
-3.58719e-05
-4.2712e-05
-4.98419e-05
4.1412e-05
7.73552e-05
8.70744e-05
0.000164197
-6.16373e-05
-9.29681e-05
0.000116618
-4.30623e-05
7.13114e-06
5.47622e-05
0.000126706
0.000193393
-3.12825e-05
1.15732e-05
-4.65923e-05
1.93003e-05
-5.40805e-05
-8.36791e-05
-5.01422e-05
-0.000114938
-0.000232071
-4.77061e-05
-7.21788e-05
0.000310944
7.52257e-05
9.35314e-05
7.23656e-05
1.93722e-05
4.95189e-05
7.98111e-05
4.68163e-05
-0.000166093
-6.53206e-05
-0.000107058
1.03217e-05
-6.81253e-05
9.49864e-05
3.31195e-05
-0.000102443
9.1251e-06
2.97704e-05
1.93306e-05
1.25193e-05
7.17118e-07
-2.48236e-05
-8.20067e-05
-8.28359e-05
-0.000191552
2.27999e-05
-1.99792e-05
9.79193e-05
4.7113e-05
0.000262577
-0.000116817
9.36973e-05
0.000135494
1.57775e-05
0.000112313
8.25354e-05
0.000170318
0.000158923
0.000345818
-9.85183e-05
-6.70162e-05
-0.000195829
-9.14073e-05
2.79819e-05
-3.26646e-05
4.2581e-05
-0.000120335
-4.07852e-05
8.69529e-05
8.81134e-05
5.68866e-05
3.99183e-05
-9.7299e-05
-2.90597e-05
0.000140622
3.17728e-05
-0.000259939
-0.000218101
-4.738e-05
-3.95927e-05
9.52389e-05
0.000363356
1.26981e-05
8.10347e-05
4.0242e-05
-6.18495e-05
7.56168e-05
3.4529e-05
-0.000109823
-6.1065e-05
8.17375e-06
-8.66235e-05
-8.19515e-05
6.96069e-05
-0.00011136
-0.000196603
2.07067e-05
3.74108e-05
-5.96815e-06
0.000113565
-0.000161587
2.19129e-05
0.000114655
-1.26143e-05
-0.000203566
-0.000191611
-0.000210146
7.13599e-05
-8.94675e-05
0.00021182
0.000266509
-2.1603e-05
2.29154e-05
-0.000191615
-0.000166183
-0.000119052
5.54665e-05
-0.000189457
7.05428e-05
1.86581e-05
-6.05037e-05
5.5694e-05
1.46289e-05
-5.10002e-05
-3.37199e-05
-9.50288e-05
0.000114377
0.000232891
-8.46137e-05
9.46034e-05
3.04594e-05
-8.05201e-05
1.34774e-06
5.75506e-05
2.14954e-05
4.92133e-05
4.4684e-05
-1.98439e-05
-0.000105982
1.61591e-05
-0.000121992
-5.25874e-05
1.09724e-05
-4.18905e-05
-8.27864e-06
0.000103277
5.63823e-06
-4.74006e-05
8.89155e-05
8.96046e-05
0.000115387
0.000105399
-0.000136721
-6.29025e-05
-1.79774e-05
-6.16841e-05
-0.000173318
-4.12951e-05
-6.82952e-05
-4.67097e-05
-6.8455e-05
-3.54997e-06
0.000176489
0.000149594
-1.17547e-05
9.10768e-05
-6.26532e-05
0.000132205
-0.00012336
-0.000275172
3.59095e-05
0.000102268
0.000209563
0.000140281
-0.000115207
-0.000132602
0.000107925
-0.000102599
2.70095e-05
8.30363e-05
6.47237e-05
0.000127884
-0.000110112
-1.59126e-05
2.03364e-05
-5.19708e-05
-0.000157999
-8.25844e-05
5.20572e-05
0.000109171
0.000221106
0.000236122
1.9355e-05
-0.000109608
0.000167917
2.75525e-05
0.000193501
-0.000206618
6.71579e-05
-0.000137767
0.000116884
-3.17583e-05
-0.000122408
-4.32236e-05
-4.88061e-05
-3.77396e-05
-9.45835e-05
2.78867e-05
1.40462e-05
0.000106417
-0.000208823
6.29608e-05
-3.12679e-05
0.000126623
9.649e-05
0.000152775
-2.7199e-05
2.86634e-05
-2.95714e-05
-0.000179679
2.55378e-05
0.000132584
-0.000188637
-3.19991e-06
0.000156826
9.03346e-05
0.000121962
5.57459e-05
-4.54925e-05
1.8605e-05
0.000172876
-0.000185613
-0.000170203
-7.03335e-05
5.79653e-05
-5.13805e-05
-0.000129193
-6.74451e-05
7.46788e-05
0.000201344
-3.69665e-05
6.60639e-05
0.000167223
-6.30835e-05
-0.000101392
-0.000150746
-0.000129357
-0.000185132
0.000197362
1.8475e-05
-4.88695e-05
-5.78375e-05
-0.000154513
-5.52104e-05
-6.89805e-05
5.50654e-05
0.000118762
-0.000142701
-0.000345596
-7.65529e-05
0.000178942
7.15198e-06
0.000140331
0.000125961
5.01599e-06
3.05409e-05
-2.09677e-05
-0.000175516
8.10793e-05
0.000387517
-0.000272649
3.36859e-06
-3.50354e-05
-3.23297e-05
-7.57864e-05
-5.98585e-05
8.33876e-05
-0.000192361
-0.000109631
0.000272622
4.24267e-05
-9.41878e-05
9.37741e-05
-5.85874e-05
-0.000135286
0.000138885
3.29886e-05
1.33115e-05
-0.000348756
-8.09433e-05
9.32184e-05
-9.05806e-05
-3.33823e-05
-0.000106144
-3.45631e-05
0.000224897
-3.39246e-06
-0.000165967
0.00019455
-1.08994e-05
-1.47875e-05
-0.000109528
-2.75299e-06
5.42511e-05
-0.000124909
0.000245589
1.40974e-05
0.000102108
3.22446e-05
0.000120218
9.06772e-05
-5.69285e-05
-0.000168581
-7.20827e-05
0.00016737
-4.57126e-05
9.95377e-05
7.81474e-05
-4.15402e-05
-0.000152908
-0.000129277
-5.7847e-05
-0.000115449
-5.80645e-05
2.17989e-05
3.14409e-05
-4.8679e-05
0.000134196
7.005e-05
2.32693e-05
6.85721e-06
9.49485e-05
1.49766e-05
4.07533e-05
0.000241579
3.93747e-05
0.00012945
0.000150177
-0.000213615
-0.000137952
2.85476e-05
-8.61472e-05
-9.99037e-05
3.91302e-05
-3.55791e-05
-0.000106994
5.04106e-05
-2.22474e-05
-7.00097e-05
-0.000105066
-4.74802e-05
0.000121418
1.06231e-05
5.67338e-06
-1.39294e-05
-6.32333e-06
-0.000172221
-4.4844e-05
9.77758e-05
0.000202955
-0.000177322
-0.000127207
-0.000124524
0.000145036
-2.13569e-05
7.99894e-05
8.88114e-05
-1.80808e-05
-3.94774e-05
0.000111458
0.000129033
-0.000103592
6.87415e-05
0.000132276
0.000270716
0.000186306
1.7347e-06
0.000117782
8.55429e-05
-0.00010285
-2.21066e-05
-0.000154703
-0.000280757
-6.90562e-05
0.000236997
9.22489e-05
2.40846e-05
-4.1996e-05
-7.53215e-05
7.58201e-06
2.78752e-05
0.000160565
1.48322e-05
0.000136831
-6.11609e-05
1.75417e-05
2.38691e-05
1.93762e-05
1.06024e-05
-8.24116e-06
7.56994e-05
0.000204895
0.000120993
-8.31514e-05
-0.000139904
4.63014e-05
-0.000119224
-2.20223e-05
-4.77487e-05
0.000196707
-2.91765e-05
-5.03403e-05
9.54766e-05
0.00013374
0.000104477
-5.77513e-05
2.13047e-05
-2.86578e-05
0.000257249
0.000139232
-4.66516e-05
0.00010249
-0.000158888
-0.000173481
3.45393e-06
-1.5182e-05
-3.93989e-05
-0.00016288
0.000114068
7.98221e-05
2.75637e-05
-0.000137828
-0.000233399
0.000103114
6.68208e-05
0.000206701
4.87803e-05
-4.33828e-05
-1.79113e-05
-0.000130114
-2.19718e-05
7.98999e-05
0.00028638
0.000141723
0.000113342
-1.29289e-05
-0.000240289
-4.90006e-05
-4.99478e-05
-6.84124e-05
-0.000113909
-8.12951e-06
2.44743e-05
-0.000148566
0.000230774
6.10156e-05
4.10591e-05
-1.85937e-05
0.000136143
0.000100711
6.40223e-05
-1.10405e-05
-0.000114313
-7.48619e-05
-0.000249046
8.37864e-05
-4.41712e-05
3.58624e-05
-0.0002269
-6.60474e-05
-4.38982e-05
-1.98897e-05
6.26512e-05
-0.000117983
-0.000104708
2.19536e-06
0.000215912
0.000171445
-4.18393e-05
9.20484e-05
-2.79141e-05
-9.60265e-05
-4.77635e-05
0.00015184
4.72974e-05
7.84595e-05
-2.78456e-05
0.000146806
1.72693e-05
0.000164015
-7.22363e-05
4.87834e-05
-0.000101488
-9.34743e-05
0.000146712
-8.86646e-05
-0.000117104
3.54272e-05
4.09746e-05
3.06283e-05
5.0944e-05
-0.000131164
4.99586e-05
0.000153024
-6.28601e-05
-7.15131e-05
-2.09284e-05
-1.3514e-05
0.000124431
-0.000171086
1.67411e-05
-0.000143396
-8.50195e-05
0.000165665
-0.000125681
-9.89421e-05
-0.000128469
5.91796e-05
0.000182759
9.99387e-05
-7.55822e-05
0.00011666
-0.000107991
-9.83244e-06
5.86768e-05
0.000279219
-7.01424e-05
7.23999e-05
-0.000157841
-2.04628e-05
-6.05164e-05
0.000107725
3.14699e-05
-0.000223366
-8.40587e-05
-1.2497e-05
5.50197e-05
0.000159481
-0.000269637
-7.73635e-05
-3.74453e-05
0.000114135
-2.79573e-05
-4.12719e-05
-1.07283e-05
0.000136554
-6.49972e-05
-0.000114534
0.000142364
-0.00012338
5.02043e-05
0.000108147
-0.000149513
-0.000104906
-0.000133944
-0.000109171
0.000117362
0.000105139
0.00011011
-0.000138356
-6.15395e-05
-5.78231e-05
2.47983e-05
-9.38409e-05
-0.000103764
-2.19167e-05
-4.312e-05
5.88314e-05
-0.000200635
-9.26023e-05
3.70857e-05
6.40103e-05
-9.74953e-05
0.000139836
6.82515e-05
-0.000142294
-0.000149031
0.000208362
2.59466e-05
-4.52857e-05
0.000141534
3.82003e-05
6.34135e-05
-7.36705e-05
-0.000234922
-0.000206308
-4.68069e-05
0.000165736
-0.000126762
4.3835e-05
-8.29073e-05
-0.000145625
-5.86645e-05
8.19174e-05
-0.000152684
1.52881e-05
-7.06445e-05
-9.14782e-05
5.18365e-05
-7.85838e-05
-0.000109761
6.28156e-05
0.000295931
0.000172435
9.04279e-05
-0.000146635
-1.97501e-05
0.000138582
9.35332e-05
-1.00996e-05
0.000104924
5.27896e-05
-1.52411e-05
-8.089e-05
-1.56658e-05
0.000116235
0.00012496
-1.18858e-05
-0.000180282
-8.13252e-05
-0.000139734
2.16777e-05
0.00013572
0.000104814
-6.2071e-05
-2.51248e-06
-0.000126895
-9.12593e-05
-3.15431e-05
0.000135056
8.46859e-05
-5.22482e-05
8.46515e-05
0.000111345
-8.09386e-05
3.21676e-05
2.04309e-06
-2.29373e-05
2.68514e-05
1.97978e-05
0.000251224
-6.83349e-05
-1.44017e-05
7.31687e-05
0.000263257
-0.00022625
8.56372e-05
9.54645e-05
-7.33511e-05
-1.14085e-05
2.46005e-05
1.2025e-05
7.66749e-05
-0.000139379
-0.000103577
-6.13537e-05
-0.000143436
-5.06126e-05
1.89327e-05
-2.54404e-05
0.000125837
0.000175976
-6.852e-05
-0.000103894
-4.92545e-05
-1.07067e-06
-7.63382e-05
-0.00023044
-7.49165e-05
6.42124e-05
0.000194525
-3.90497e-05
4.74746e-05
-5.80336e-05
-0.000263384
-0.000185817
-0.0001826
0.00011385
-0.000107107
4.77323e-05
-1.37675e-05
3.90298e-05
-4.98e-05
0.000124665
-0.000111192
-5.23864e-05
0.000163799
0.000117316
-2.34073e-05
-6.54836e-05
-0.000191587
-4.17344e-05
-0.000168721
-0.000185242
-0.000141335
-5.9294e-05
0.000276734
-0.000165418
-1.10967e-05
-0.00020213
6.95821e-05
5.3974e-05
3.95316e-05
-0.000114534
5.07265e-05
0.000190722
0.000117596
0.000158601
-0.00015763
-4.76541e-05
0.000185392
0.00012826
-1.17142e-05
-5.16418e-07
-1.02574e-06
-6.54041e-05
-7.96092e-05
1.35e-05
0.000153486
0.000139798
2.53204e-05
-4.66661e-05
6.48459e-05
-0.000205658
-0.00024613
-0.000113136
1.38258e-05
3.534e-05
0.000109886
-0.000120393
1.78218e-05
0.000258006
-3.13072e-05
-0.000107637
-6.31738e-05
-0.000176051
-0.000152762
-2.56145e-05
-8.48575e-06
6.66796e-05
-1.23429e-05
0.000180115
4.65566e-05
-7.95476e-05
-9.16636e-05
1.82355e-05
7.39486e-05
-6.61839e-05
-0.00022395
4.35092e-05
0.000250369
-0.000113428
-0.000132493
-3.94712e-05
0.000178305
8.01956e-05
0.000177419
-2.90448e-05
-7.0002e-05
1.05032e-05
2.06484e-05
-5.13204e-05
-1.67164e-05
0.000150445
0.000101368
-8.66551e-05
0.000164756
4.60547e-05
-0.000229469
3.83356e-06
-0.000186857
0.000113848
3.77439e-05
6.96607e-05
0.000361035
-7.14492e-05
-0.000200499
-6.63986e-05
0.000223406
3.50621e-05
-0.000128464
-2.30561e-06
0.000205401
0.000123547
2.64149e-05
-8.79462e-05
-0.000211338
-1.36219e-05
8.90171e-05
-7.63685e-05
-0.000191535
-3.56321e-05
-0.000111087
4.84528e-05
1.64506e-05
-0.000122153
1.93163e-05
0.000199427
6.8319e-05
-3.27207e-05
-0.000142874
0.000170349
4.31112e-05
4.08788e-05
5.82803e-05
3.13594e-05
0.000116871
2.30892e-05
-3.07809e-05
0.000251294
-3.31069e-05
9.8641e-06
4.41968e-05
6.51693e-06
0.000122426
-0.000243412
-0.000125022
4.58622e-05
-4.09037e-05
-0.00013047
-0.000225967
0.000114788
-0.000173228
-1.38357e-05
-1.63363e-05
4.23546e-05
-7.1812e-06
7.60823e-05
-5.83003e-05
0.000272364
8.31302e-05
-0.000214188
-0.000112271
2.46577e-05
0.000171077
5.66922e-05
0.000117923
5.84609e-05
-9.83232e-05
-4.16348e-05
-0.000146962
-3.76764e-05
6.12671e-06
3.60666e-05
1.12316e-05
-2.18725e-05
-2.58329e-05
-8.65195e-05
-2.09537e-05
0.000247455
-9.45036e-05
-0.000200351
-2.18896e-05
5.4453e-05
7.88472e-05
-0.000112951
0.00010324
8.66854e-05
-7.54523e-05
-6.20065e-05
-5.40933e-05
-0.000126331
-0.000134451
0.000155197
-0.000140729
-3.82668e-05
-4.57312e-05
-6.78364e-05
-0.000139245
8.93137e-05
7.76042e-05
5.95913e-05
0.000132374
8.6535e-05
-3.43235e-05
-3.3878e-06
0.000121153
-0.000274051
-0.000230259
4.07128e-06
0.000171413
8.87609e-06
-4.60201e-06
5.80738e-06
-4.56264e-05
-0.000109621
-0.000197248
3.4084e-05
-9.88245e-05
-5.13941e-05
6.26978e-05
-0.000143478
4.03001e-05
-9.55936e-05
-0.000171815
-2.66414e-05
-0.000128391
-5.41675e-05
-2.262e-05
0.000133894
0.000307791
-1.24145e-05
7.12191e-05
6.30111e-05
-0.000142978
-4.28539e-05
7.27442e-05
0.000134912
-0.000144958
-7.82819e-05
1.03249e-05
4.66584e-05
-0.000254675
-4.34915e-05
0.000171366
-0.000146593
-1.51718e-05
0.000148324
0.000161357
-0.000165001
9.31916e-05
0.000133817
0.000195508
9.07155e-05
-0.000199668
9.75993e-05
8.19139e-05
2.75791e-05
-0.000347571
0.000107377
2.74971e-05
8.81781e-05
-1.83377e-05
9.98324e-05
-8.15609e-05
0.000182569
0.000111695
3.37691e-05
0.000113768
-8.39892e-05
-7.53202e-05
0.000103348
5.34817e-05
0.00038386
-1.7576e-05
-3.9362e-05
2.90893e-05
-3.04639e-05
4.07195e-05
-2.17494e-05
0.000187071
0.000175181
-2.54993e-05
-5.58642e-05
9.40327e-05
-5.13368e-05
-6.30689e-05
3.38451e-05
-9.55968e-05
-0.000235001
-0.000303709
-0.000118961
-2.12339e-05
-0.000125445
-0.000197535
2.42596e-05
-4.43684e-05
-1.76906e-05
0.000153666
-2.80606e-05
-7.15787e-05
-5.33261e-05
4.43403e-06
0.000145546
4.96058e-05
-3.65917e-06
-5.26564e-05
-1.53184e-05
5.31948e-06
-3.66592e-06
-3.28398e-05
-0.000135682
0.000103511
9.36684e-05
0.000307995
4.10262e-05
6.76274e-05
4.77865e-05
-5.89526e-05
5.19663e-05
2.46684e-05
1.39641e-05
0.000137729
-5.8284e-05
-9.66795e-05
8.49715e-07
6.43376e-05
0.000141709
0.000115229
-8.76281e-06
-6.55508e-05
-0.000163687
0.00021144
8.04034e-06
-0.00016618
-2.09514e-05
-0.000109409
0.000258793
-4.63398e-05
-2.01578e-05
-0.000127606
-0.000274005
2.22423e-05
0.000285763
-0.000108879
-0.000309916
-0.000174115
0.000102868
0.000195791
0.000221295
0.000260798
-8.5819e-05
6.41969e-05
-8.05401e-05
7.46845e-05
5.11471e-05
-0.000176159
6.66194e-05
-0.000183021
-0.000111451
2.65148e-06
6.79173e-05
-0.000127941
-0.000318266
-0.000169412
3.0854e-05
0.000122887
-3.72435e-05
-2.09105e-05
-5.70789e-05
1.59605e-06
-2.04736e-05
8.97786e-05
2.56178e-05
1.6483e-05
-2.59834e-05
0.000266387
5.36526e-05
-7.91447e-05
6.01673e-05
7.70239e-05
-1.78135e-05
0.000127991
2.50291e-05
0.000201317
-7.47674e-05
-0.000173207
-8.44415e-05
-8.15943e-05
-3.8996e-05
0.000143798
0.000125763
-0.000104174
-2.0653e-05
0.000109276
-4.47959e-05
-0.000137845
1.45372e-05
0.000146177
-3.78705e-05
2.44299e-05
-2.21906e-05
0.000195292
0.000190427
-4.36234e-05
-0.000243533
0.000162121
2.12518e-05
-6.494e-05
-0.000126836
3.61875e-05
-3.0603e-05
-1.57079e-06
-0.000193788
-0.000106358
0.000215177
4.1728e-05
2.19359e-05
5.19562e-05
7.27046e-05
-4.14836e-05
-0.000130847
0.000197219
-4.46432e-05
0.000102457
-5.97358e-05
4.1114e-05
5.38204e-05
7.34132e-05
-0.000184881
-0.000119286
-0.000147444
4.4957e-05
4.8441e-05
-5.62875e-05
-1.58853e-05
-0.000128528
-0.000109483
-1.16642e-05
-7.53829e-05
-7.10501e-05
0.000315567
0.000252146
9.39213e-05
-1.2184e-06
-7.07479e-06
1.82312e-05
-5.05173e-06
-1.56661e-05
0.000111652
-0.000235866
-8.62346e-05
-5.80892e-05
0.00012623
-0.000236103
-8.97296e-05
-0.00012591
1.48113e-05
0.000119477
-0.000103909
-5.96714e-05
-3.52889e-05
-8.59493e-05
-4.29995e-05
-0.000201847
0.00034547
2.09684e-05
-1.82067e-05
3.46183e-05
2.5054e-05
-0.000166019
-1.86431e-05
0.000150573
-1.22664e-05
-5.69968e-05
2.03651e-05
0.000271111
-2.97953e-06
-0.000326953
3.88045e-05
0.000108643
0.00023093
-2.50227e-05
-0.000132807
-6.67614e-05
2.63331e-05
-0.000115409
-0.000154445
9.87495e-05
7.64751e-05
-0.000174212
-5.90112e-05
-3.17756e-05
6.83456e-05
3.11732e-05
-8.05635e-05
4.53835e-05
0.00010488
-0.000112778
9.06037e-05
-8.43336e-06
-2.387e-05
0.000221969
7.28411e-07
8.42512e-05
1.21462e-05
0.000157582
-4.84316e-05
-0.00010349
0.000180164
4.52691e-05
2.34949e-05
-7.83382e-05
-3.99477e-05
0.000115869
8.01294e-05
-0.000104259
-0.000256216
-3.71467e-05
6.9072e-05
-0.000193315
-7.17122e-05
3.27334e-05
0.000119741
0.000205971
-9.64552e-05
-0.000219224
3.35312e-05
-0.000103103
0.000151955
-0.000128484
2.37977e-05
-3.43997e-05
-0.000148866
-8.81517e-05
0.000227456
7.85333e-05
-3.41589e-05
-0.000233473
8.21182e-05
0.000156978
0.000202122
8.63809e-05
5.56308e-05
2.50139e-05
0.000126707
-7.85686e-05
-0.000127987
-9.46596e-06
-3.71021e-05
0.000124185
0.000145569
3.99896e-05
-0.000112168
9.53178e-05
5.26727e-05
7.08887e-05
-7.14767e-06
-5.06326e-05
7.93358e-05
6.50189e-05
-0.000111097
-4.94923e-05
0.000103889
6.76477e-05
-4.92409e-05
-2.83626e-05
-2.91279e-05
0.000177588
-0.000245104
-4.19642e-05
1.38809e-05
2.15797e-05
-2.59613e-05
-0.000235711
1.44282e-05
-0.000116183
3.73079e-05
4.47758e-05
-5.08793e-05
-1.45524e-05
6.54431e-05
-1.65525e-05
-0.000209294
-3.9133e-05
-1.3885e-05
3.23477e-05
8.3226e-05
-8.52182e-05
-0.000151681
8.84265e-05
0.00026328
-8.30983e-05
0.000171247
5.99338e-05
-0.000108409
-0.000281442
0.000130058
9.63152e-05
0.00013226
-3.13683e-05
-0.000232176
-0.000156409
0.000145958
8.4213e-05
-4.48988e-05
0.000152116
-0.000114232
8.04944e-05
2.13278e-05
-0.000176654
-2.75463e-05
2.11982e-05
0.000167485
-6.2612e-05
-1.9224e-05
6.43813e-05
0.000112802
1.97357e-05
0.000331924
-0.000225139
-0.00019099
3.43401e-05
-0.000166412
5.76981e-05
9.70627e-05
0.000144349
0.000151169
5.6086e-05
9.30094e-05
-4.86417e-05
-7.85775e-05
0.000117464
-6.62582e-05
-2.83172e-05
7.10684e-05
5.20691e-05
-0.000131097
-3.04193e-06
-0.000249998
-8.70321e-06
-3.48295e-05
8.50585e-05
0.000206972
6.48022e-05
9.5339e-05
-4.81026e-05
-6.64913e-05
-6.3664e-05
8.9241e-05
1.29582e-06
-1.72704e-05
2.53546e-05
0.000142111
-3.0598e-05
-6.10535e-05
2.95395e-05
4.76479e-05
1.56116e-05
7.54604e-05
-1.50605e-05
-0.00012199
8.08898e-05
0.000112082
-9.34552e-05
1.3508e-05
0.000253381
-4.45924e-05
6.84443e-05
-0.000192206
-2.04069e-05
1.07824e-06
-0.000112448
8.36991e-06
0.00013879
0.000124168
4.84815e-05
-2.12089e-05
9.43167e-05
9.76368e-05
1.69963e-05
-0.000225391
-3.7408e-05
-3.19881e-05
3.55951e-06
-0.000114472
-9.62898e-05
-1.40975e-05
0.000149978
0.000290888
-9.58584e-05
0.000182518
0.000105917
2.23506e-06
0.000228029
0.00011244
3.68035e-05
-2.41599e-05
-3.4537e-05
2.5647e-05
-0.000223403
0.000142921
-7.24017e-05
9.36899e-06
9.92168e-05
4.5714e-05
-0.000136189
-1.39074e-05
0.000105463
0.00014774
1.37482e-05
-0.00015278
0.00011599
2.62847e-05
-0.000116207
8.67206e-05
3.03565e-06
5.7941e-05
0.000142028
6.38076e-05
0.000121976
0.000208609
-0.00014782
3.71661e-05
0.000145022
9.67365e-05
-0.000212694
4.85219e-07
0.000234437
2.65437e-05
-8.36605e-05
-0.000178189
-9.45092e-05
0.000126947
8.73018e-05
6.40209e-05
0.000193513
0.000117916
0.00020453
-5.94546e-05
-0.000343627
-0.000352543
-9.46955e-05
4.56301e-06
0.000198515
-3.86104e-05
3.65123e-05
1.65348e-05
-4.29791e-05
3.44124e-06
0.000190708
5.3198e-05
7.39787e-05
0.000131072
-1.98809e-05
0.000248553
-0.000146067
2.11733e-05
0.00029347
3.12792e-05
-0.00015419
-0.000245896
0.000200893
-6.5417e-05
-4.66694e-05
-0.000140173
-9.16132e-05
-7.73899e-05
2.62433e-05
3.86254e-06
7.5008e-05
0.000112072
-7.78032e-05
-5.63646e-05
-1.30094e-05
3.41667e-06
-7.51712e-05
-1.52574e-06
-4.00845e-05
0.000144254
9.83899e-05
9.99612e-06
-4.68354e-05
5.71902e-05
0.000168197
-7.48676e-05
-0.000159875
-0.000149638
-4.02633e-05
-3.41618e-05
0.000119227
4.11392e-05
5.46684e-05
1.6616e-06
-4.61477e-05
4.43378e-05
-7.69284e-06
8.57823e-05
-0.00018746
-6.97931e-05
7.95549e-05
0.000276454
-7.00906e-05
-6.43297e-05
4.33781e-05
-2.52565e-05
-1.17524e-05
8.78517e-06
-5.43218e-05
-0.000157077
0.000101623
9.27033e-05
-4.03706e-05
0.000159828
-2.95776e-06
-0.00015359
-0.000125479
-0.000114483
2.18479e-05
-7.56073e-05
-0.000133174
-0.000155923
6.59926e-05
-3.34842e-05
9.77027e-06
-0.000231898
5.8359e-06
-1.46228e-05
8.7728e-05
0.00020068
0.000186516
5.05369e-05
0.000152275
1.03347e-05
2.32045e-05
-7.97763e-05
-0.000102552
8.53487e-06
0.000116162
0.000107333
-6.2565e-05
-3.64287e-06
-6.13031e-05
0.000265159
0.000147856
-2.32649e-05
-0.000185835
-0.000126436
-0.0001157
8.34228e-05
-8.76395e-05
9.54353e-05
0.000181959
0.000111311
8.40691e-05
-5.29345e-05
-6.19704e-05
0.000179134
-2.77243e-06
-6.26226e-05
-0.000192133
0.0001308
0.00017161
-0.000170942
-0.000200885
0.000165005
-0.000198086
-9.1404e-05
0.000123855
0.000188317
0.000170757
-0.000226157
-1.01104e-05
6.01818e-05
0.000101205
-0.000154104
0.000155749
2.68997e-05
-4.05499e-05
0.000105022
-0.000268108
-6.54567e-05
2.29175e-06
8.6344e-05
-0.000111169
0.000229067
-6.06857e-05
8.84158e-05
0.000116766
4.37787e-05
0.000118159
5.06095e-05
-9.36614e-05
-0.000109435
4.79663e-05
-0.000146821
5.69441e-05
-2.67604e-05
0.000167314
0.000152704
8.48003e-05
-2.26543e-05
2.56522e-05
4.78429e-05
-0.000127516
-4.91135e-05
0.000141981
-0.000180807
4.69427e-05
-2.87084e-05
-0.000226419
-5.76975e-05
9.61688e-05
-0.000181697
-1.72836e-05
0.000137653
-0.000237207
5.73655e-05
2.21671e-05
-0.000107175
0.000146517
-1.5121e-05
3.11272e-05
-0.00012267
-0.00018621
-9.43313e-06
2.16297e-05
-6.76734e-06
9.19503e-05
-7.37631e-05
-0.00010997
-8.10882e-05
2.12498e-05
9.64386e-05
9.79577e-05
0.000195957
-6.95757e-05
-0.000210636
0.000146251
5.00963e-05
-2.25713e-05
-5.6826e-05
-8.49625e-05
-7.51182e-05
-0.000215913
-0.00010785
8.72558e-05
-0.000124572
5.52984e-05
7.64648e-05
8.02334e-07
-0.000217844
1.14969e-05
-4.76924e-05
-6.04071e-05
7.41887e-05
-0.000166197
1.93024e-05
0.000144242
0.000220978
3.02974e-05
-0.000149336
-0.000116337
0.000109341
0.000141096
1.49463e-05
-0.000151816
-0.000213523
9.48261e-05
8.57251e-05
-9.88558e-05
-2.38923e-05
-3.91323e-05
0.000235152
0.000103213
-0.000166009
-0.000117886
-4.76127e-06
-4.78468e-05
2.6793e-05
5.80356e-05
-0.000180683
-8.27487e-05
-0.000195524
-3.93251e-07
0.000134033
-4.05767e-05
-0.000162392
0.000219728
0.000188452
-0.000126449
-0.00023562
-0.000108304
3.13176e-05
0.000192521
0.000151645
5.96448e-05
2.26183e-06
-9.20097e-05
-9.36228e-05
0.000162091
7.08495e-05
1.067e-05
0.000122829
1.92967e-05
-7.32834e-05
-0.00029703
-2.86589e-05
-1.95896e-05
0.000130126
-0.000124041
5.76237e-05
-1.99183e-05
-5.95134e-05
1.06081e-05
-3.3184e-05
6.10607e-05
-9.88448e-05
-1.34895e-05
7.30084e-05
0.00024272
-6.30722e-05
1.37079e-05
-2.66859e-05
7.90628e-05
-6.84056e-06
0.000222575
0.000131714
-0.000134956
-0.000143266
8.44819e-05
-1.58228e-05
0.000165735
0.000108023
1.13419e-05
-9.13767e-05
-7.82779e-05
-3.5977e-05
-1.86106e-05
-4.04357e-05
1.84644e-05
-0.000150753
-0.000205065
-3.45767e-05
-5.93897e-05
9.58645e-06
0.00013918
8.78213e-05
1.73379e-05
-5.51665e-05
9.24516e-05
-7.2168e-05
0.00021733
3.13295e-05
-0.000166459
0.000182168
0.000219729
-0.000110655
-1.56453e-05
7.92727e-05
-3.95714e-05
2.57621e-05
-7.23337e-05
-0.000105929
-0.000150561
6.0088e-05
2.41438e-05
-7.36566e-05
-4.8456e-05
-4.49029e-05
-0.000264396
2.47576e-05
0.000213095
0.00013204
0.000230555
1.86297e-05
0.000138592
-4.30928e-05
7.69629e-05
8.52455e-05
0.000188798
-5.86314e-05
9.54461e-05
-3.67179e-05
7.64383e-07
3.00643e-06
-7.01821e-06
0.000142857
2.79151e-05
5.91485e-05
1.26975e-05
0.00015726
-4.80098e-05
5.92886e-05
2.42627e-05
0.00019864
-9.5141e-05
-9.94542e-05
-0.000182624
-0.000134923
-5.11396e-05
-9.40778e-05
-0.000211476
-4.06832e-05
-0.000239638
6.64397e-05
-2.91681e-05
4.35202e-05
-0.000109218
-0.000109187
8.05235e-05
-0.000131288
-0.000152713
0.000273536
0.000224639
6.93863e-05
-0.000127007
3.9948e-05
-0.000102692
-0.000258069
-0.000164973
0.000100179
-3.4994e-05
7.75753e-05
-3.0963e-06
-3.42298e-05
2.32074e-05
-6.50028e-05
0.000283855
0.000205445
-7.66886e-05
-2.73087e-06
-8.45315e-05
-0.000135829
-3.7697e-05
6.4206e-05
-4.80063e-05
6.44709e-05
-0.000131232
0.000189103
-8.45754e-05
-2.72518e-05
-0.000119825
-2.35478e-05
0.000135111
-0.000150219
8.07876e-05
6.25581e-05
5.98833e-05
-5.21614e-05
-0.000306798
-0.000262813
0.000255284
0.000300731
0.000159832
-0.000122474
1.81586e-05
5.81125e-05
-3.84026e-05
7.3976e-05
6.36349e-06
-1.5432e-06
-0.000117486