# vtk DataFile Version 1.0
Net Charge Density
ASCII
DATASET STRUCTURED_POINTS
DIMENSIONS 256 128 1
ORIGIN 0 0 0
SPACING 0.15625 0.15625 1
POINT_DATA 32768
SCALARS rhonet float
LOOKUP_TABLE default
6.37199e-06
0.000161706
-4.42317e-05
0.000272554
-4.25129e-05
-0.000262637
-0.000276163
0.000286436
0.000272635
-0.000159034
0.000129987
0.000308983
-5.74797e-05
-0.000218491
0.000191308
-0.000178372
0.000606497
0.000338133
4.32169e-05
0.000220074
-0.0001101
0.000128983
0.00037398
0.000113269
-1.6953e-05
-2.62528e-05
-3.51501e-05
0.000347622
2.43277e-05
0.000146113
0.000315053
0.000240209
0.000258453
9.61429e-05
0.000164226
0.000113411
-3.73344e-05
8.80276e-05
-0.000121633
0.000103578
-9.53174e-05
0.000135217
0.000431533
0.00036062
0.000103163
9.6758e-05
9.50517e-05
0.000159582
0.000328909
0.000335509
0.000171526
-5.4259e-05
7.39369e-05
0.00052832
3.58563e-05
0.000136519
0.000386834
0.000167482
-5.15947e-05
-0.000133015
6.01631e-05
0.000229334
9.76434e-05
-0.000101291
-5.76079e-05
-0.000188339
0.000297719
4.87873e-06
6.10373e-05
7.33208e-05
-9.05531e-05
9.08e-05
-5.53177e-05
-9.20433e-05
7.01047e-05
0.000319168
0.000338692
0.000338543
0.000132788
-3.36285e-05
5.50429e-05
0.00010329
0.000154395
9.31823e-05
-3.0245e-05
0.000277444
0.000459503
8.48441e-05
6.58809e-05
0.000182228
2.01144e-05
-4.25183e-05
0.000141889
0.000350532
0.000399152
0.000288958
0.000107401
8.95892e-05
-1.99502e-05
-0.000171388
-0.000162353
0.000305741
0.000212817
0.000218342
0.000409035
0.00017533
0.000397226
0.000282414
-3.14798e-05
4.63015e-05
0.000123834
9.27916e-05
5.19027e-05
3.02865e-05
0.00021942
0.000112085
0.000107079
-8.50569e-05
-7.58803e-05
1.74991e-05
0.000118435
0.000266267
-0.00013784
8.8535e-06
-2.4525e-05
-0.000162125
-0.000307758
-0.000336997
-0.000389621
0.000125929
0.000184971
-3.71108e-05
0.00020021
-2.19501e-05
-0.00018149
0.000239421
0.000321081
0.000122478
-0.00019085
9.22091e-06
-9.94506e-05
-0.000221395
0.000205266
0.0002484
0.000429856
1.41095e-05
-0.000263852
-1.21666e-05
9.91637e-06
0.00022808
0.000364588
0.000278434
4.71596e-05
-0.000239875
0.000102705
-3.06136e-05
-3.19921e-06
0.000311437
-2.43867e-05
-9.68968e-05
-0.000344571
0.000223019
5.18578e-05
0.000501036
0.000145898
6.19538e-05
-0.000352542
0.000326226
3.47337e-05
0.000205026
-0.000213399
-4.41847e-05
0.00020578
9.90429e-05
0.000217204
-3.80434e-06
-0.000144822
9.59348e-05
0.000446116
0.000199704
0.000183928
-3.06995e-05
9.5157e-05
0.000173415
9.99483e-05
0.00032289
-4.70079e-05
-0.000281086
-0.000226261
0.000126876
1.16364e-05
0.000199632
0.000352767
0.000239465
0.00017727
-5.27815e-05
0.000257623
0.000258368
6.54128e-05
1.46038e-05
9.44431e-06
6.14118e-05
8.39324e-05
-2.73124e-05
-6.42108e-05
0.000142021
0.000157032
-0.000115508
2.46359e-05
0.000168514
0.000195354
3.69288e-05
1.24846e-05
-0.00024311
6.76797e-05
0.00010245
-0.000139337
5.85077e-05
0.000120716
4.29347e-05
-0.00011389
-0.000166113
-1.88535e-06
-6.2988e-05
0.000159672
0.000242812
0.00010013
2.00669e-05
-4.16345e-05
-5.93584e-05
-5.9631e-05
-7.99578e-05
7.24902e-05
0.000237313
0.000147355
0.000104385
0.000297793
0.000132704
-0.000253014
5.63242e-05
0.000231504
0.000211664
0.000164266
0.000276524
0.000422364
0.000303247
0.000308387
0.000100294
0.000179269
-9.01935e-05
-0.000183635
0.000131917
9.19849e-05
4.15787e-05
-0.00027197
-0.000152671
2.43762e-05
9.47485e-05
-0.000214568
1.92727e-05
-0.000273047
-0.000257781
-0.000216592
4.66066e-05
5.01265e-05
-0.000185216
1.70076e-05
5.67845e-05
-0.000158954
-3.18292e-05
3.58839e-05
-0.000125072
0.000248791
0.000135164
-0.000170184
7.94469e-05
-0.000118907
-0.000106244
-0.000137994
-0.000170337
3.65649e-05
-6.48405e-05
-0.000217159
8.96177e-06
-7.55794e-05
-0.000172705
6.5966e-05
-0.000382314
8.1894e-05
0.00012706
-4.57072e-05
5.32877e-05
-0.000141124
-0.000188777
-5.10514e-05
-0.000172994
-6.59374e-05
-0.000120856
-0.000223732
-0.000167552
4.18071e-06
-6.26275e-05
-0.000117641
2.64423e-05
0.000309124
0.00018751
-2.52854e-06
-0.000125592
-0.000272062
4.29422e-05
2.56064e-05
-4.93506e-05
-6.23544e-05
-9.20069e-05
-0.000195968
0.00018506
-0.000295498
-0.000102343
-3.6329e-05
1.36618e-05
-0.000110858
-7.37309e-05
9.81602e-06
-1.41128e-05
-3.97917e-05
6.40604e-05
0.000132989
7.55792e-06
-0.000221041
-1.79163e-05
-1.78273e-05
3.26547e-05
-3.19812e-05
9.31068e-05
-0.000227972
-0.000126925
-2.28838e-05
0.000121198
-0.000113236
-0.000114708
-0.000155033
0.000234851
0.000123626
-0.000166589
-0.000365773
-0.000129384
-0.000203699
0.000127833
6.1912e-06
7.39204e-05
-1.12975e-05
6.77858e-05
-0.000130364
-3.33951e-05
-3.29296e-05
-2.54146e-06
-0.000202671
-0.000118329
-8.38562e-05
-0.000159704
4.77576e-05
-3.47438e-05
4.41018e-05
0.000128787
4.24561e-05
-0.000149166
-9.58868e-05
9.49316e-05
-0.000198202
-5.9501e-05
8.14281e-05
0.000198934
-5.04453e-05
1.61061e-05
5.33235e-05
1.28458e-05
-2.35755e-05
4.29854e-05
-8.23488e-05
0.000144176
0.000126517
-4.47234e-05
-0.000209531
-7.72768e-05
0.00024841
-4.02674e-05
0.000110524
-6.51588e-05
-3.11504e-06
-3.54919e-05
-0.000106317
-0.000143507
5.74975e-07
0.000164488
-0.000144604
-0.000156415
9.18263e-05
-0.000192467
-9.01152e-05
-0.000236919
2.86265e-05
0.000133892
-0.000164879
-0.000173208
-0.000150501
-2.74847e-05
-5.8111e-06
-1.68465e-06
-3.99887e-05
-0.000136232
-8.77776e-05
1.2483e-05
-5.60209e-05
-1.87696e-05
-7.81994e-05
-0.00012887
-0.000149109
4.59142e-05
-4.02945e-05
4.14264e-05
5.90329e-05
3.19446e-05
-7.52889e-05
8.13601e-05
0.000131861
-4.24304e-05
-6.75293e-05
0.000154261
8.63961e-05
8.47499e-05
7.58866e-05
-2.02073e-05
-6.90606e-05
-0.000247209
-0.000117258
-5.6272e-05
0.000196311
-0.000203561
-0.000242143
-8.573e-05
-0.000172572
-7.6025e-05
-9.92243e-05
-0.000104891
-0.0001248
-2.14684e-05
-0.000282358
-0.000170992
-4.0793e-05
-4.67757e-05
0.000233597
-0.00018114
-0.00017412
-9.96771e-05
-8.34073e-05
-0.000132301
-0.00017308
-0.000158002
7.50807e-05
2.06234e-05
-0.000113286
0.00016075
-6.32037e-05
-3.57882e-05
-4.80553e-05
4.07042e-05
-8.74558e-05
0.000130494
0.000316963
-4.44044e-05
-4.70611e-05
2.70768e-05
5.27265e-05
0.000131471
-3.35248e-05
-0.000248605
-4.0915e-05
4.04499e-05
4.41035e-05
-7.87689e-06
1.02042e-05
3.86877e-05
-1.8017e-05
3.848e-05
6.77845e-05
4.7637e-05
4.10205e-05
-9.48202e-05
-0.000204497
-0.000144073
-2.30891e-05
7.59583e-05
-2.1141e-07
4.41796e-06
-0.000136269
-0.000236711
-9.02684e-05
-0.00012178
-0.00014844
6.646e-05
-3.04457e-05
-7.59166e-05
-0.000235461
-6.59912e-05
0.000162875
0.000166028
-0.00032694
8.93534e-06
-0.000423346
-0.000163285
6.24766e-06
-0.000140025
-3.28332e-05
8.90149e-05
6.37643e-05
0.000260515
-0.000170349
-0.000242645
4.31496e-05
9.33814e-05
0.000211465
0.000131724
4.46369e-05
-4.58619e-05
2.59302e-05
3.65281e-05
4.60865e-06
0.000108949
-5.55266e-05
-3.82997e-05
-0.00010306
0.000102903
0.000179154
5.15282e-05
-0.000181338
2.65189e-05
0.000181282
-4.1167e-05
-1.70562e-05
-1.12937e-05
-1.74325e-05
0.000193057
-2.64288e-05
-0.000189562
-0.000113012
2.67178e-05
3.02009e-05
5.6834e-06
-0.000188175
0.000121869
-0.000128205
-0.000180723
-0.000160753
-3.99065e-05
-0.00017376
-8.61101e-05
3.54925e-05
0.00010493
3.03858e-05
5.32835e-05
0.000119566
-4.06367e-05
5.57872e-05
0.000130975
-2.17063e-05
9.79367e-06
-0.000228101
-0.000150037
-0.000214258
5.48335e-05
7.11821e-06
-0.000140622
6.97621e-05
7.36192e-05
-3.43185e-05
0.000266735
0.000214809
0.000102111
9.45467e-05
-1.75827e-05
0.000196695
6.7514e-05
0.000238689
4.74206e-05
-0.000148664
-5.04868e-05
-0.00030506
-0.000346538
2.88351e-05
-5.43112e-05
2.28201e-05
-7.00519e-05
-1.38422e-05
7.98677e-05
-5.69928e-05
7.05979e-05
0.00014052
0.000252267
0.000104623
-4.35645e-05
-0.000112843
1.04994e-05
-0.000138796
0.000166952
3.82015e-05
-9.32984e-05
-1.55076e-05
5.56917e-05
-7.53725e-05
7.0306e-05
6.72787e-06
2.14077e-05
0.000150008
6.19921e-05
-0.000104529
-0.000110262
0.000230249
1.34101e-05
0.000190294
-0.000112872
0.000223201
-0.000139759
8.28765e-05
-8.98223e-05
-1.85353e-05
-0.00013529
-8.08069e-05
-2.60209e-05
-2.24588e-05
0.000182901
-0.000165403
-0.000113061
-8.75792e-05
-1.27272e-05
0.000135283
-0.000161812
-3.86902e-05
0.000226618
-0.000221685
-0.000237305
0.000241014
0.000123374
9.23001e-05
4.72441e-05
2.88484e-05
-8.52719e-05
-3.62704e-06
0.00012425
-0.000192884
-0.000119279
3.56336e-05
8.65626e-05
-0.000167404
-1.368e-05
0.000134426
-0.000102779
6.04622e-05
-1.8324e-05
-0.000159519
0.00015311
0.000118558
7.92167e-05
0.000177318
-7.17225e-05
-9.39347e-05
0.000163892
0.00013058
6.9337e-07
0.000118843
-0.00021122
1.82455e-05
-3.23858e-05
6.84394e-05
-0.000126838
2.4116e-05
-4.32262e-05
-8.34537e-05
-0.00010388
-1.27451e-06
6.06827e-06
5.30774e-05
8.58968e-05
0.000196841
-3.64869e-06
8.70193e-05
-9.74e-05
-7.77886e-05
-2.26796e-05
3.19006e-05
-0.000132469
2.96429e-05
-3.94208e-05
0.0003486
8.60586e-05
-0.000153473
0.000142118
-0.000221662
0.000100891
0.000118587
4.45514e-05
-0.000186003
7.95185e-05
0.000130318
-6.18506e-05
-2.55115e-05
0.000143083
2.15314e-05
-7.50294e-05
-7.39781e-05
-7.36201e-05
-2.3808e-05
-2.12056e-05
-0.000216514
-1.23659e-05
3.22961e-05
-0.000247991
-0.000270275
5.70605e-05
-9.30624e-07
-0.000135107
-0.000203063
-0.000130213
-0.000110592
0.000120002
0.000200467
0.00010556
-2.28977e-06
-3.26042e-05
-1.92767e-05
-0.000153352
-2.59173e-05
-0.000185595
3.72631e-05
0.000194358
-2.0185e-05
0.000146048
0.000162559
-7.06365e-05
6.38347e-05
4.66539e-05
7.75096e-05
-2.77435e-05
2.67939e-05
0.00018074
9.78936e-05
-5.06258e-05
-0.000107481
-0.000199312
9.5143e-05
-5.13672e-05
0.000244366
0.000163783
0.000173702
-8.37593e-05
-8.06856e-05
3.41018e-05
3.39011e-05
0.000148403
-2.64491e-05
-0.000109972
2.33529e-06
4.69694e-05
-0.000155579
6.4523e-05
-0.000280318
1.53114e-05
0.000340259
-0.000309744
-4.18201e-05
0.000124109
4.01828e-05
3.96743e-05
-0.000124286
-0.000162623
-2.39073e-05
-0.00012117
-3.90583e-05
-2.05856e-05
-0.000227387
-6.3953e-05
0.00014918
0.000194516
0.000152324
8.42611e-05
1.92041e-05
-1.05578e-05
1.47244e-05
0.000153489
0.000234031
0.000403754
5.72554e-05
6.10105e-05
-6.81938e-06
0.000177508
2.89001e-05
-1.5949e-05
-3.00786e-05
-0.000187489
-0.000256754
4.35177e-05
9.94664e-06
-1.84063e-05
0.000128711
9.59121e-05
2.54598e-05
0.000118597
5.99725e-06
-7.00436e-05
4.98731e-05
-1.60724e-05
3.57431e-05
6.4763e-06
-1.09547e-05
1.67744e-05
0.000161201
-5.50763e-05
-0.000197497
-0.000222037
-4.77969e-05
-6.20366e-05
-0.000145504
-0.000168797
-0.000131032
0.000173104
0.000241501
0.00026664
7.74879e-05
-3.02345e-05
-9.06358e-05
-0.000272295
-0.000134775
0.000121703
-7.66688e-06
-0.000126903
-0.000115537
-4.01286e-05
0.000230459
0.000138497
-5.79357e-05
-5.68342e-05
0.000178922
0.000159742
-2.14217e-05
-7.03186e-05
-6.18937e-05
1.45212e-05
0.000129253
-7.73002e-05
2.45181e-05
-0.000191959
-7.95838e-06
5.61713e-05
-8.55082e-05
-0.000209566
-0.000117801
-0.000239627
-0.000173796
8.61719e-05
-8.19673e-05
0.000115508
-0.000145946
-0.000229573
-3.20261e-05
-8.87332e-05
-1.27328e-05
-3.82296e-05
5.75244e-05
-1.55844e-05
-0.000115238
-3.21427e-05
-0.000350186
2.13806e-05
0.000255904
-8.29218e-05
5.97823e-05
-3.94593e-05
0.00012728
-5.13204e-05
5.97258e-05
7.664e-05
8.378e-05
0.000185269
-0.000116847
-1.70202e-05
3.83219e-05
1.06471e-05
-2.64635e-06
7.6963e-05
-7.43999e-05
-0.00035921
-8.89217e-05
-0.000298638
-7.64776e-05
0.000189471
5.70435e-08
-0.000257379
0.00016937
7.48869e-05
-0.000119491
5.6643e-05
0.000102712
6.17133e-05
-5.34263e-05
0.00013792
8.02921e-05
-6.04766e-05
-3.17666e-05
6.58382e-05
4.47455e-05
8.68738e-05
2.07929e-06
-9.78878e-05
0.0001769
2.49536e-06
-0.00010685
-3.58459e-05
-7.45391e-05
-1.9892e-05
4.11285e-05
0.000141878
-0.00035829
-0.000113646
0.000254992
3.42365e-05
2.61537e-05
-0.000178648
-4.27734e-05
-0.000163271
-5.3059e-05
0.000251441
6.10109e-05
-0.000102133
-0.000266347
-0.000182779
2.95554e-05
-3.51775e-05
5.78079e-05
3.08547e-05
0.000162354
0.000145496
8.12567e-05
3.53612e-06
4.93617e-05
-1.65992e-05
0.000217731
-1.86934e-05
5.82286e-05
0.000140018
-0.000119175
0.000136902
0.000100822
6.22302e-05
-2.73273e-06
0.00017028
-6.88626e-05
-8.66917e-05
-0.00014813
6.16069e-05
0.000167205
-5.53445e-05
4.11912e-06
0.000129309
-5.13755e-05
1.90092e-05
-2.83674e-05
0.000184169
0.000183413
6.77985e-05
1.14024e-05
3.80729e-05
-0.000142401
-0.00024709
-2.99159e-05
-1.94866e-05
0.000202026
5.86025e-05
0.000111027
1.0177e-05
2.88934e-05
7.82763e-05
-2.14139e-05
0.000278354
3.07817e-05
-5.64395e-05
0.000180185
0.000100607
0.000111877
-0.000173089
0.000142359
-5.42158e-05
-0.000278163
7.01922e-05
0.000193951
-0.000321018
-6.23123e-05
-7.86677e-05
-7.76171e-05
-0.000117606
-0.000201965
6.03042e-05
7.48308e-05
0.00010095
-2.40221e-05
1.23319e-05
2.29246e-05
6.52758e-05
-0.000126784
-7.23309e-05
0.000247223
0.000155499
9.18631e-05
2.35062e-05
3.3479e-05
-0.000162828
0.000103116
-0.000222127
-0.000112872
7.25646e-05
0.00014046
0.000153666
1.44863e-05
-4.16522e-05
-3.08275e-05
0.000139536
0.000187167
-0.000133703
6.07525e-05
-1.35378e-05
-8.92758e-05
4.29316e-05
5.73357e-05
2.27335e-05
-0.000272532
-0.00023278
-0.00021374
-0.000110104
-7.59169e-05
-5.11742e-05
5.80046e-05
-9.14346e-05
-0.000174383
-0.000154271
-2.42416e-05
-8.59222e-05
3.17966e-05
0.000153501
0.000119929
-7.73113e-05
2.16484e-05
3.35627e-05
-0.000121878
-3.87772e-05
0.000221803
-5.87973e-05
6.49313e-05
0.000135808
0.000138969
0.000190344
4.05131e-05
-0.000147388
0.000108906
2.29739e-05
0.000152403
-1.90807e-05
-5.93237e-05
0.000144195
7.18974e-05
-6.05664e-05
2.91162e-05
-0.000180118
0.000156936
-1.77864e-05
-0.000338276
-0.000176172
-3.66245e-05
-7.53398e-05
-5.26062e-05
-4.11561e-05
0.000127168
2.94065e-07
9.91068e-05
-4.50562e-05
-2.59271e-05
0.000115593
2.98605e-05
-0.00041227
-8.39543e-05
-2.52114e-05
5.98949e-05
0.000108913
-0.00011784
-0.000235068
0.000130714
0.000251325
-0.00014538
0.000108544
0.000255227
0.000150158
-4.57938e-05
-4.29763e-05
-2.09234e-05
0.00022693
-0.000147033
-0.000239007
-2.68015e-05
-3.93814e-05
-0.000198962
-0.000108082
6.62754e-05
0.000170328
-0.000107351
-3.4384e-05
-0.000164402
0.000179497
-0.000144738
1.95531e-06
-1.74991e-05
-7.76033e-05
0.000166739
-1.84089e-05
4.28916e-05
-8.95716e-05
-1.09299e-05
1.94076e-05
8.7294e-05
1.852e-05
-0.000134207
-0.000100331
-1.60651e-05
-0.000125625
-0.000315838
-0.000154449
0.000404511
-0.000137693
3.41407e-05
1.40374e-05
8.24872e-05
-0.000186885
-0.000174161
2.54979e-05
-8.1982e-06
-6.9279e-05
-7.40725e-05
0.000263832
2.38358e-05
-9.19051e-05
2.26977e-05
-0.000103726
-0.000109622
0.00019748
0.000173941
5.97502e-05
9.67963e-05
6.68215e-05
-0.000124458
-9.5317e-05
-5.10219e-05
0.000107127
4.91224e-05
8.37769e-05
-6.29099e-05
-3.57935e-05
-0.00016118
-0.000116484
3.65672e-06
0.000102791
-2.3432e-05
0.000101855
-9.04745e-06
-8.25436e-05
-2.50456e-05
1.50469e-05
0.00013117
-0.00027757
-3.33005e-05
0.000200035
0.000112607
0.000109815
6.88829e-07
5.0491e-05
0.000137769
-5.06465e-05
0.00011676
8.92812e-05
8.5891e-05
0.000170438
0.000172833
-0.000133429
-0.000176956
-0.00013281
0.000186693
5.55115e-05
-5.24169e-05
-3.10959e-05
9.45528e-05
0.000151814
-0.00022057
2.29004e-05
6.01208e-05
0.000106009
0.000520219
1.11976e-05
-0.000224287
-6.13777e-05
-0.000156
-7.70146e-05
-6.7564e-06
-6.21753e-05
0.000198749
-2.13621e-05
-0.000199635
7.79056e-05
2.96404e-05
-4.7707e-07
-7.56285e-05
0.000236857
5.12303e-05
1.0415e-05
9.42696e-05
6.46453e-05
-0.000138298
-3.57837e-05
0.000199081
3.01341e-05
0.000179707
0.000233204
8.04173e-05
5.52926e-06
0.000126813
9.72202e-05
0.000103938
-3.96394e-05
-3.08481e-05
-3.92433e-05
-0.000136466
4.2246e-05
0.00018807
-5.39855e-05
-0.000119876
1.3001e-05
0.000174571
0.000182995
-2.51515e-05
6.13811e-06
0.000242304
0.00012683
-0.00035738
-8.30686e-05
-3.56891e-05
-4.99045e-05
-1.87061e-05
-0.000171079
-8.48453e-05
-5.28034e-05
2.81618e-05
8.49436e-06
-0.000105059
2.34668e-05
8.99346e-05
0.000209786
3.37714e-05
0.000138
-9.50093e-05
-0.000113132
-0.000223389
-8.19431e-05
0.000144743
-0.00010421
1.176e-05
4.73538e-05
-3.66318e-05
-0.000215081
0.000202685
3.45673e-05
0.000182617
-7.96177e-05
3.76253e-05
9.3558e-05
-5.32899e-05
9.86834e-05
-3.79587e-05
-0.000107125
-2.94618e-05
-6.46778e-05
-0.000151283
0.000207977
0.000115277
-4.09479e-06
3.42603e-05
0.00019276
-3.83073e-05
2.39001e-06
0.00011401
-9.13134e-05
-7.68278e-05
1.01682e-05
-0.000104964
-0.000105121
0.000152484
0.000136687
-0.000325078
6.80827e-05
0.000154581
-0.000140988
0.000206504
-1.66873e-05
-0.000258377
-8.67649e-05
-6.30342e-05
0.000120276
0.000150694
-0.000108165
-2.88943e-05
-6.0909e-05
-0.000142228
7.38134e-05
-9.32651e-05
-0.000102941
-0.000109924
-0.000179958
4.38641e-05
0.000200554
4.30023e-05
-0.000103498
0.000119174
-5.10502e-05
-0.000126822
-5.15948e-05
-0.00031797
-0.000193891
1.99254e-05
-0.000168527
-0.000186554
0.000207686
0.000525494
0.000122656
-2.03333e-05
-0.000120036
6.37468e-05
0.00023124
-2.19658e-05
-0.00028323
-4.06816e-05
8.48831e-06
0.000300191
7.30751e-06
6.65663e-05
-0.000137688
-0.000128191
-8.89051e-05
1.46804e-05
-5.34052e-05
0.00021231
0.000152881
1.12904e-05
4.66851e-05
-5.11704e-05
0.00013357
0.000109324
0.00011311
-8.04416e-05
-0.000181192
0.000161072
2.87645e-05
-0.000106313
5.395e-05
2.33159e-05
0.000143794
-7.46123e-05
-3.46529e-05
-6.60757e-05
3.46948e-05
0.000237121
8.93944e-05
0.000277977
7.50602e-05
3.38483e-05
0.000220109
-2.10586e-05
1.75451e-05
0.000180011
0.000155313
-0.000103826
5.14241e-05
9.1471e-06
-1.19465e-05
-0.000157115
1.77872e-05
-0.000132517
-0.000183766
0.000114642
-0.000122718
-0.000135711
-0.00025386
0.000105947
0.000243708
0.000157999
-0.000154542
-0.000109373
-0.000182609
0.000120925
-2.58427e-05
-1.06312e-05
-4.38327e-06
-2.08627e-05
0.000113524
0.00014474
-4.7009e-05
-0.000129684
0.000114776
9.9024e-06
-0.000219001
-1.12701e-05
0.000183065
5.19906e-05
-1.29784e-05
1.73545e-05
-8.8647e-05
-0.000114698
-0.000224573
-8.09925e-06
-4.73362e-05
-7.0313e-05
0.000107953
-4.54453e-05
0.000121663
-0.000177549
-3.67259e-05
-3.37157e-05
-0.00016105
-0.000212239
6.11739e-06
8.79681e-05
5.52753e-05
-5.34459e-05
-1.5453e-06
-8.55057e-05
-6.65857e-05
3.10837e-05
3.5553e-05
-9.52051e-05
-0.000197473
0.000156602
0.000111166
-0.00024588
-9.08857e-05
0.000119939
1.58807e-05
-0.000167154
-4.32947e-05
7.82431e-05
-8.92058e-05
-0.000277943
-0.000250823
-0.000137001
0.000178925
0.000326852
-4.15377e-05
-9.76995e-05
0.000193453
6.07423e-05
-0.000102373
-0.000129858
-0.000179332
-9.72656e-05
0.000197712
0.000107005
0.000124732
-0.000194073
-0.00015595
-0.000104887
0.000282703
-4.79135e-05
-1.27169e-05
4.96169e-05
0.000127137
-9.19856e-05
8.87938e-05
0.000134472
-0.000189714
-0.000134036
-0.000210642
4.47285e-05
6.11041e-06
3.55572e-05
2.84729e-05
-4.25749e-05
0.000172263
-0.00010524
0.000173919
-5.86625e-05
6.96069e-05
0.000268994
-3.4079e-05
-9.7147e-05
-0.000128741
-6.10584e-05
5.56605e-06
-9.88075e-05
-3.24252e-05
0.000187824
7.56294e-05
-1.81326e-05
-0.000152696
-2.86622e-05
4.44034e-05
0.000127408
-1.76444e-05
0.000189143
8.18388e-06
0.000108774
8.36876e-05
0.000121948
0.000170616
0.000262072
0.000181498
-6.27653e-05
-0.000115208
-0.000213822
6.2137e-05
8.89582e-05
-5.8671e-06
0.000152608
-2.3311e-06
-8.44477e-05
0.000121752
-0.000116742
1.52574e-06
-0.000221113
-0.000175322
4.72653e-05
-2.78691e-05
-0.000208616
-4.28534e-05
5.09006e-05
-0.000226539
7.78415e-05
4.66518e-05
-5.83578e-05
0.000100225
-4.23688e-05
0.000150805
9.142e-05
-4.12161e-05
2.53306e-05
0.000174677
-4.67671e-05
0.000108663
3.13099e-06
-8.56598e-05
-6.08657e-05
-0.000160359
-6.72407e-05
3.01757e-05
0.00014219
0.000262545
-4.9873e-05
4.79707e-05
0.000130088
9.44628e-05
9.4623e-05
-7.81678e-05
-0.000251809
-0.000167616
7.70194e-05
-3.98443e-05
7.75512e-05
0.000160975
5.26764e-05
-8.14951e-05
4.06634e-05
-0.000106142
-6.73248e-05
0.000120716
0.000236436
-0.000155704
4.78908e-05
0.000250001
4.43391e-05
-4.19503e-05
-0.000167179
-0.000137143
-4.42476e-05
0.0001332
-0.000156789
5.2359e-05
-7.77072e-07
-1.25037e-05
0.000102718
-0.000113446
0.000259915
0.000388968
0.000107695
7.06649e-05
7.34956e-05
3.33933e-05
-0.000202957
-0.000298978
-3.02298e-05
-5.29778e-05
-0.000135739
6.93231e-05
0.000101989
-3.79401e-05
-4.66759e-05
-0.000133162
6.3836e-05
-3.4493e-05
-5.06138e-05
0.000102232
0.000166676
8.06288e-05
-9.26927e-05
5.65182e-05
-1.85454e-05
-9.8494e-05
-0.00042681
-0.00025435
0.000115552
0.000280801
8.42626e-05
-7.1635e-06
5.64801e-05
0.000133172
9.35333e-05
0.000106813
-0.000110293
3.78834e-05
9.21241e-06
0.000289105
-6.51225e-05
-0.000115569
-0.000169241
0.000366814
0.000204115
-1.44549e-05
-9.6388e-05
-0.000130123
4.4828e-05
-9.99189e-05
0.000313467
-9.64062e-05
5.2451e-05
0.000116583
-0.000147856
-2.99823e-05
-9.81182e-05
-5.05561e-05
-5.31706e-05
-8.92088e-05
2.70964e-05
6.20633e-06
-7.86443e-05
5.35813e-06
-2.61473e-05
-0.00019137
2.5384e-05
0.000134478
-5.89843e-05
-1.55845e-05
-1.90649e-05
0.000230223
0.000166745
-0.000100045
0.000129949
0.000238693
-1.21663e-05
-0.000246452
-3.54715e-05
-6.26547e-05
1.67093e-05
-1.26858e-06
-1.31074e-05
-2.28458e-05
7.95282e-05
-5.72426e-05
-1.46963e-05
6.76771e-05
-9.67103e-05
8.14428e-05
0.000102996
3.27656e-05
-6.39607e-05
0.000145403
0.000127996
8.2131e-05
-2.42856e-05
0.000105742
-9.28451e-05
-3.07228e-05
-1.93412e-06
-0.000205831
-0.000241472
-0.000106073
-0.000190127
-0.000190178
-0.000193017
-0.000204198
0.000100314
0.000102588
-2.52657e-05
0.000179576
0.000183385
-0.000216385
-9.24335e-05
-0.000127681
-1.82432e-05
0.000105117
-5.14534e-05
-6.89406e-05
9.04431e-06
8.67667e-05
-7.79267e-05
7.97752e-05
-6.09687e-05
0.000112391
0.000252481
0.000223985
-2.79942e-05
0.000113682
-0.000177302
0.000122728
-3.70545e-05
0.000101428
-7.9209e-06
4.82092e-05
6.19532e-05
-5.81964e-05
-6.14997e-05
6.87956e-06
3.09316e-06
-3.82836e-05
0.000256011
-1.31496e-05
-9.73686e-06
5.23264e-05
9.32431e-05
-9.09813e-05
-7.70944e-05
-9.13697e-06
-9.49365e-05
-1.21654e-05
-9.04249e-05
4.69561e-06
5.81363e-05
-4.35765e-05
-5.27321e-05
-0.00014269
7.65477e-05
-2.97007e-05
-0.000210942
-9.97072e-05
0.000136444
0.000147817
-0.00015298
4.8704e-05
-0.000129573
-0.000139087
4.42525e-05
-7.54803e-05
-5.97638e-05
0.000106976
9.47653e-05
-2.93944e-05
5.15771e-05
-2.17767e-06
-3.92174e-05
-0.000167197
-5.46743e-05
0.000136524
-0.000195337
-0.000143675
-0.00022559
-3.32994e-05
8.68717e-05
0.000266661
2.33764e-05
5.29981e-05
0.000116864
4.59036e-05
-4.19419e-05
4.09731e-05
-0.000111904
4.87913e-05
-7.32029e-05
-0.00011304
-0.000184911
0.000149577
-9.09639e-05
-3.54819e-05
5.39365e-05
-0.000170741
4.87367e-05
6.63165e-05
0.000154463
4.49135e-05
3.6591e-05
-0.000165087
-0.00010961
-0.000147796
-3.35828e-05
2.86032e-07
6.47868e-05
-4.86241e-05
-0.000185203
-5.91296e-05
-5.32893e-05
1.4903e-05
4.99627e-05
0.000213687
0.000113083
-0.000247626
-0.000267402
0.000111445
0.000238092
0.000153394
-0.000185187
-0.00022885
0.00010601
4.71395e-05
-5.70725e-05
-0.000353877
-7.65921e-05
0.000168423
-6.31507e-06
-0.000145433
-0.000100625
-0.000160139
2.2084e-06
9.22754e-06
-0.000104657
-5.13969e-05
0.00019829
0.000173217
3.19246e-05
8.48856e-05
-6.61741e-05
5.09829e-06
3.10383e-05
3.35004e-05
3.069e-05
3.36778e-05
4.05197e-05
-0.000217514
2.81786e-05
1.22783e-05
3.3289e-06
2.64524e-05
0.000125084
0.000105875
-3.0741e-05
-0.000171125
7.40599e-05
0.000137775
8.78279e-05
0.000270086
1.74462e-05
1.51142e-05
-0.000250254
-0.000170057
1.05883e-05
-6.68003e-05
-0.000210072
1.70984e-05
1.35612e-05
0.00012489
0.00015912
-0.00028951
-8.45344e-05
-0.000121755
-0.000159195
0.000165972
1.41803e-05
-4.81308e-06
9.07048e-05
0.000257122
-6.47218e-05
-3.28564e-05
6.53575e-05
0.000150414
0.0001379
-1.19242e-05
-0.00014434
0.000254465
-0.000100586
5.89035e-05
3.80032e-05
-0.000200241
-0.000226505
-5.34063e-05
-2.57886e-05
-6.86781e-05
-1.34995e-06
0.000108511
1.11539e-05
6.22938e-06
-6.05963e-05
-9.93123e-05
0.0002492
2.00451e-05
4.4757e-05
-0.000159999
-0.000406759
8.98687e-05
0.000204602
-0.000133815
-6.47602e-05
2.77262e-05
0.000182235
6.83009e-05
0.000220982
6.41011e-05
6.59993e-06
0.000130917
0.000149076
-0.000188343
-0.000146267
4.19893e-05
7.61802e-05
0.000105667
4.53552e-05
-2.9762e-05
1.28911e-05
-0.0001114
0.000122017
0.000112474
1.91811e-05
3.07614e-05
0.000146427
-5.58987e-05
0.000112725
-6.61444e-05
-0.000174762
-0.000221675
-4.77093e-06
-4.8775e-05
-9.82155e-05
0.000234238
0.000208873
-2.67248e-05
-1.0082e-05
0.000168232
0.000176867
0.000137883
0.000209513
-0.000138029
-0.00014129
6.09944e-05
0.000265716
-4.14791e-05
-0.000136722
-0.000368283
1.74774e-05
0.000108484
-9.44238e-05
0.000132526
0.000248788
0.000145209
0.000127243
-0.000173431
-1.21557e-05
3.27954e-05
1.44739e-06
5.45741e-05
0.000105909
-5.56221e-05
8.06067e-05
-0.000307512
-7.92672e-05
7.29806e-05
-0.000155878
0.000154241
0.000190244
4.69602e-05
9.76518e-05
8.18652e-05
-6.08371e-05
-0.000104514
-0.000164962
-0.000300457
-7.56946e-05
-2.77195e-05
3.62335e-05
-0.000145593
-0.000112771
0.000122268
-0.000136977
-0.000155853
1.73026e-05
-6.53823e-06
9.7597e-05
-3.09068e-05
0.000198328
-9.89274e-06
-6.40124e-05
-0.000255362
-0.000124263
0.000185619
6.81274e-05
0.000223832
0.000272339
0.000235176
7.83759e-05
5.80795e-05
-0.000158737
-5.02232e-05
-0.000162305
-4.68686e-05
-9.78471e-06
9.43599e-05
5.84178e-05
-5.24652e-05
6.39437e-05
5.74534e-05
-0.000267367
8.19351e-05
-3.60834e-05
-0.000203365
-6.86402e-05
-4.15376e-05
-0.000126427
-6.2834e-05
-0.000169292
-0.000148653
-7.24462e-05
0.000155479
-0.000169711
-0.000215924
0.000145277
0.000142846
0.000163861
0.000195384
6.4684e-05
4.59336e-05
-0.000141577
0.000144593
0.000121718
0.000131455
-8.63932e-05
9.63067e-05
0.000155967
0.000138553
0.000107783
-7.06816e-05
-0.000112516
-0.000234863
-7.79043e-05
3.01414e-05
-0.000200122
-0.00010701
-0.000160476
2.76102e-05
0.000153075
-4.82992e-05
9.04477e-05
-0.000163169
8.83911e-05
0.000177077
0.000112464
5.61252e-05
-0.000168857
-0.000143051
3.31426e-05
0.000249993
8.86264e-05
4.84848e-05
-0.000137395
-0.000159557
-9.44624e-05
-0.000138796
0.000116067
-1.9151e-05
-3.55642e-05
0.000188026
0.000267103
0.000200301
0.000244492
-2.12051e-05
0.00011978
0.000296082
0.000106785
5.70784e-06
-6.98813e-05
-4.31006e-05
0.000265042
6.10112e-05
-0.000218439
-7.78807e-05
-1.71638e-05
7.74348e-06
-0.000175686
-9.42217e-05
-2.6681e-05
-5.22898e-05
-0.000154978
-0.000144236
9.96183e-05
-1.73642e-05
0.000164199
9.17327e-05
2.63712e-05
1.71515e-05
6.43751e-05
-0.000155482
-0.00022302
-0.00028175
5.05301e-05
5.70742e-05
8.99507e-05
0.000164589
0.000229104
0.000170329
-0.000169178
-9.72436e-05
2.53133e-06
-2.03593e-05
0.000155556
-4.80772e-06
-0.000286589
-0.000131697
-2.80034e-05
8.84797e-05
0.000156603
-4.91808e-06
-6.14641e-05
-5.07595e-05
2.70323e-05
0.000235945
6.65551e-05
-3.6363e-05
-0.000120267
-5.13494e-05
9.00053e-06
8.51357e-06
-5.03233e-05
6.33933e-05
-0.000355647
9.89119e-05
0.000267228
7.24472e-05
0.000229213
0.000158176
-5.10531e-05
-0.000111848
-3.19937e-05
-0.000148784
-0.000193404
0.000122919
4.61792e-05
-0.00024358
0.000125099
7.04196e-05
-0.000203715
-0.000387321
-0.00031481
-1.6377e-05
-0.000110049
-9.42722e-05
-0.00010605
8.99531e-05
0.000254071
0.000124291
5.61523e-05
6.52495e-05
0.000158295
-3.83668e-05
1.61156e-05
3.91701e-05
-3.86811e-05
-0.000315284
-0.000101285
0.000207872
-4.65147e-05
-6.09094e-05
-4.4924e-05
3.04441e-05
-0.000116224
-0.000177354
-6.2753e-05
-1.89102e-05
8.66378e-05
2.76637e-05
6.8713e-05
0.000262961
-0.000138856
-0.000315277
-3.61551e-06
-4.04522e-05
-0.000107893
-4.32495e-06
7.74808e-05
-8.59285e-06
0.000132402
0.000323604
0.00010455
-0.000154
-7.18539e-05
0.000219239
2.44488e-05
0.00016781
2.36792e-05
-0.000237451
2.94112e-05
4.1153e-05
0.000284162
2.34125e-05
-0.000158415
-2.8028e-05
-3.1674e-05
3.25311e-05
-0.000314393
-1.3862e-05
3.24647e-05
0.000130923
7.58817e-05
2.29904e-05
0.000124511
-5.63766e-05
-9.06711e-05
-0.000143162
0.000225451
8.46502e-06
0.000113954
7.04917e-05
-0.000128932
-0.000108438
-9.89916e-05
-6.46695e-05
0.000123281
3.90665e-05
-8.83033e-06
-0.0001319
5.85519e-05
6.30914e-05
-6.49689e-05
0.000235855
0.000101648
-0.000151795
-0.000405331
-0.000227767
3.22193e-05
-8.12788e-06
-5.00086e-05
0.000227247
0.0001354
1.1605e-05
0.000251582
0.000134957
7.50161e-05
-2.14716e-05
-6.08901e-05
2.18854e-05
-0.00032622
-6.861e-05
0.000162894
0.00014733
0.000132806
8.49575e-05
0.000202095
0.000212063
6.55843e-05
2.27273e-05
0.000188404
0.000124058
0.00013433
-2.40067e-05
-6.67328e-06
-9.88662e-05
7.38569e-05
0.000151418
-0.000140233
-6.30599e-06
0.000278875
2.2942e-05
-5.13333e-06
-8.09025e-05
-2.21154e-06
-0.00022886
-0.000256456
-0.00010675
8.39697e-05
-4.12971e-05
-0.000167547
2.73595e-05
-5.09667e-05
-0.000193361
-0.000146192
0.000256431
2.04961e-05
9.07152e-05
-5.07497e-05
2.8458e-05
-9.53445e-05
5.50285e-05
0.000192102
-3.51543e-05
1.90542e-05
0.000321054
3.57617e-05
0.000106941
0.000221777
0.000170624
4.74477e-05
0.000100181
7.77375e-06
-9.67847e-05
-0.000155402
-4.50325e-05
2.58967e-05
9.34349e-06
0.000115936
2.16325e-05
7.83193e-05
0.00018278
2.70703e-05
9.81586e-05
-4.73417e-05
1.0854e-05
0.000117765
-2.06975e-06
0.000159881
9.27309e-05
-5.03531e-05
3.16824e-06
-0.000118166
-1.88956e-05
-8.16165e-05
-2.20111e-05
5.4115e-05
-3.73146e-05
8.76039e-05
0.000160862
0.000218181
7.88198e-05
-4.0605e-05
8.7376e-05
0.00017299
-0.000112933
-9.00588e-05
0.000160888
-0.000112613
-0.000211072
-0.000251706
-0.000329592
-0.000117101
-1.6294e-05
8.84143e-05
-9.13345e-05
-0.000120551
-0.000205332
-5.69393e-05
-0.000164875
-0.000198383
0.000220574
0.000255881
2.6296e-05
-7.01174e-05
5.42065e-06
4.40397e-05
-6.61429e-05
-5.9085e-05
-6.98129e-05
5.57039e-05
-0.000141399
2.36213e-05
5.42903e-05
-0.000167197
-2.82445e-05
0.000203685
9.1395e-05
0.000182503
4.63031e-05
-7.30045e-05
3.17551e-05
-0.000179553
2.56143e-05
0.000443627
0.000351898
4.04289e-05
-1.14528e-05
0.000143796
0.000127988
4.30997e-05
-6.27572e-05
6.02799e-05
0.000169231
-6.5323e-06
-7.34787e-05
-4.9107e-05
-0.000180423
-0.000128178
-2.93778e-05
-5.31693e-05
3.36688e-05
0.000142939
0.000290312
7.8837e-05
-9.06806e-05
-0.000145685
-2.37674e-05
3.89972e-05
0.00018521
0.000158576
6.54079e-05
-0.000123714
-0.000148922
-6.73428e-06
3.48805e-05
-6.99738e-05
-1.13666e-05