# vtk DataFile Version 1.0
Net Charge Density
ASCII
DATASET STRUCTURED_POINTS
DIMENSIONS 256 128 1
ORIGIN 0 0 0
SPACING 0.15625 0.15625 1
POINT_DATA 32768
SCALARS rhonet float
LOOKUP_TABLE default
0.000228937
-0.00020767
4.79934e-06
0.000173949
5.93192e-05
-0.000114281
0.00015702
-0.000244414
2.91633e-05
1.65408e-05
0.000244566
0.000325454
0.000297595
-0.000100092
-0.000240344
0.000158104
0.000284249
-0.000225633
-0.000102361
-0.000264157
0.000179414
3.56707e-05
9.14768e-06
8.19451e-05
-1.2608e-05
0.000395284
0.000215537
0.000113408
0.000289696
-2.54009e-05
-0.000141643
-0.000115679
0.000263566
0.000160877
8.53821e-05
5.24919e-05
0.00023684
-1.53144e-05
-1.04784e-05
-2.28564e-05
6.45365e-05
0.000185739
8.03941e-06
0.000159839
5.51352e-05
7.26213e-05
8.93404e-05
-8.04332e-05
0.000139272
6.98364e-05
0.000109551
-8.60388e-05
0.000159733
0.000152451
-0.000142451
-2.40814e-05
7.78961e-05
0.00010629
3.15148e-05
2.50298e-05
8.17338e-05
0.000265977
0.00017285
-4.44043e-05
4.04202e-05
9.23664e-05
7.41601e-06
0.000224464
0.000126232
-0.000163821
-0.000257996
2.02002e-05
7.33661e-05
7.57176e-05
0.000349858
9.23567e-05
0.000106315
3.09191e-05
-4.27109e-05
-0.000200339
-0.000244243
5.60667e-05
4.54735e-05
2.06634e-05
0.00021358
0.000289037
5.14649e-05
9.78758e-05
-4.76954e-06
0.000264947
-4.64758e-05
-0.000142983
-2.37528e-05
0.000130259
0.000121658
0.000166974
-0.000203443
7.67701e-05
-9.96148e-05
0.00034703
-7.08192e-05
0.000101448
0.000229661
-0.000201573
4.18349e-05
0.000191245
0.000128587
-0.000144279
-0.000166562
0.000153107
-0.000150952
7.13991e-05
0.000269566
-0.000165895
-0.000190467
6.55981e-05
0.000254735
0.000363437
-2.63278e-05
-4.36831e-05
-0.000177368
0.000141893
-7.80763e-05
6.05531e-05
0.000178574
4.17619e-05
-1.6142e-05
5.8519e-05
0.000257528
0.000189798
6.74233e-05
0.000147092
4.25158e-05
8.65086e-05
-0.000197323
0.000288473
0.00036803
1.7347e-06
-4.08919e-05
-0.000194969
-0.00010425
0.00010357
0.000242403
-0.000136037
-3.20722e-05
0.00011463
6.98417e-05
-5.45663e-05
9.76059e-05
0.000248776
-2.73336e-05
-1.34978e-05
8.06216e-05
0.000418422
-4.81525e-05
7.12217e-05
-0.000180588
0.00017319
-3.74019e-05
0.000249651
0.000107379
5.04288e-05
-0.000204623
0.000340201
-8.37679e-05
-0.000158891
0.000189994
0.000354786
-8.31375e-05
0.000125119
-9.29716e-06
-5.40924e-05
-4.1903e-05
2.2253e-05
-0.000233455
0.000125085
9.10059e-05
2.30246e-06
-1.31412e-05
-8.50507e-05
0.000248855
0.000288962
-4.70123e-05
-2.9906e-05
-0.000220372
4.96802e-05
0.000119522
5.51471e-06
-0.00010315
0.000404673
0.00027475
2.46353e-05
0.000101104
-3.81425e-05
1.49261e-05
0.000257497
0.00030158
0.000111429
6.78577e-05
3.47535e-05
0.000216735
0.000151316
7.71427e-05
-1.0599e-05
0.000303034
-0.000187578
1.93522e-05
0.00014825
0.000139579
0.000369241
-0.000140899
1.50432e-05
0.000230957
0.000302594
-4.04124e-06
8.63534e-05
0.000199065
-4.53428e-05
0.000161311
0.000205739
-0.000280052
-4.02583e-05
0.000394506
-0.00015231
0.000107937
0.000315102
-6.72684e-05
-2.39849e-05
9.55624e-05
0.000249241
3.57177e-05
6.31108e-05
-6.77884e-05
0.000117298
-6.35283e-05
1.85182e-06
9.89287e-05
0.00017488
4.25645e-05
7.61081e-05
-1.0527e-05
-3.19988e-05
8.99867e-05
0.00014342
-0.000197345
0.000163882
0.000150881
7.11309e-06
6.15777e-05
1.37112e-05
-1.02777e-05
-5.66512e-05
-8.51154e-05
8.83497e-05
-1.64774e-05
0.00015257
-0.000223721
2.45916e-05
6.01877e-05
2.03409e-05
-4.15414e-05
-0.00010828
-4.0411e-05
-0.00014673
0.000308254
2.99629e-05
-8.71748e-05
5.18956e-06
0.000108418
-0.000198048
-0.000225959
-7.00174e-05
-8.50984e-06
1.23344e-05
0.000149176
2.18571e-05
0.000148332
-7.39006e-05
-0.000213562
3.16028e-05
-0.00029888
-2.60689e-05
8.47819e-05
-9.30803e-05
-0.000126778
5.59486e-05
-0.000121867
-9.96736e-06
5.4332e-05
1.71717e-05
3.36452e-05
-9.99756e-05
-1.22654e-05
2.55133e-05
-8.36707e-05
0.000102238
-8.43173e-05
-3.47969e-05
-0.000246107
8.56159e-05
-0.000175674
-8.23754e-05
-3.31772e-06
-7.91976e-05
8.9915e-05
-3.4129e-05
-3.9778e-05
5.71513e-05
9.55357e-05
-1.5839e-05
-0.000189332
-5.20954e-05
7.81306e-05
5.03486e-05
-8.73487e-05
3.4001e-05
-0.000145729
-0.000177614
6.97756e-05
-4.70359e-05
-7.13601e-05
9.94962e-05
-0.000148682
-3.4611e-05
8.58635e-05
5.47215e-05
-1.77646e-05
-0.000101602
-0.000130849
5.79967e-05
-9.04326e-05
0.000206221
-1.14576e-06
-0.000114257
0.000112432
-1.23784e-06
-0.000149042
-0.000124934
0.000117218
0.000130211
-0.000172205
-8.50167e-05
7.63882e-05
-0.000152182
2.47193e-05
0.000123191
-0.00015853
-7.63858e-05
4.83834e-05
3.34557e-05
5.83447e-05
-1.86798e-05
8.31799e-06
4.80316e-05
-7.64636e-05
4.34078e-06
-9.06662e-05
-0.000197767
3.11667e-05
0.000199464
9.96923e-06
7.59998e-05
-5.44268e-05
0.000112275
-5.63748e-05
-6.25888e-05
1.04546e-05
-0.000141483
-3.99123e-05
-0.000105571
-4.66953e-06
5.20053e-05
3.73583e-05
-9.27153e-05
-8.73131e-05
-6.39249e-05
-0.000202714
4.51253e-05
4.78877e-05
3.15805e-05
-3.09313e-05
0.000201256
-3.3056e-05
-0.000197669
2.6176e-06
-0.000136286
-0.000168015
0.000157515
-6.10623e-05
-8.66787e-05
-1.39765e-05
-2.66784e-05
-7.49286e-05
-3.16864e-05
-8.17118e-05
-0.000248357
0.000215478
0.000149669
0.000132263
-0.000131354
-0.000252726
-4.75369e-05
7.82746e-05
0.000127569
6.63861e-05
4.53007e-05
-0.000165336
-0.00024275
1.40173e-05
-2.32757e-05
-2.6184e-05
-0.000165153
-2.98327e-05
1.1006e-05
-0.000126687
3.93129e-05
8.27247e-07
0.000159878
-0.00017319
0.000171732
4.08031e-05
-0.00010017
-1.88935e-05
-4.29312e-05
7.57369e-05
1.24882e-05
-2.68035e-06
3.83963e-05
0.000153249
0.000184614
-0.000220772
4.46942e-05
-6.236e-05
-5.47593e-05
0.000111169
-7.18228e-05
-0.000102615
9.32021e-07
-9.49417e-05
-0.000125711
-0.000179107
7.76874e-06
4.32919e-05
-7.74391e-05
-0.000158795
-0.000133774
-0.00022997
-0.000121571
0.00015148
1.8443e-05
-9.39141e-05
7.5415e-06
-0.000130525
-0.000125035
-0.000230306
-3.48215e-05
-8.34403e-05
0.000129446
-0.000189853
-4.6605e-05
1.51549e-06
-0.000265428
-3.6501e-05
0.000104632
-0.000197913
-8.71489e-05
-2.15059e-05
-7.69641e-05
6.80978e-05
4.964e-05
-5.03894e-05
-0.000156067
8.70018e-06
-0.000163818
-0.000115076
2.43183e-05
-0.000161362
-0.00013943
-3.55644e-05
5.30457e-05
1.949e-05
2.16067e-07
-1.76276e-06
-2.40235e-06
-0.000136248
-3.61425e-05
-6.55371e-05
2.04585e-05
-0.000121123
-8.40966e-05
-0.000111357
9.02952e-05
4.2641e-05
0.00011937
-4.83061e-05
0.000102492
-1.79487e-05
-9.21958e-05
-1.57973e-05
2.7999e-05
-3.18354e-05
-7.66182e-05
2.42119e-05
-0.000116748
-7.31492e-05
0.000134895
-0.000116716
-4.80897e-05
4.53717e-05
8.15711e-06
-1.42725e-06
-0.000170006
5.6322e-05
0.00013286
-0.000100041
-3.6651e-05
-0.000107126
-0.000198562
-0.00011822
-6.2812e-05
0.000161921
8.58037e-05
-1.56355e-05
0.000101132
1.01986e-05
-0.000121351
9.81409e-05
-9.10476e-05
5.63945e-05
0.000156951
0.000119387
0.000181818
-3.27229e-05
-9.96954e-05
5.65704e-05
0.000137795
-0.000195062
3.69035e-05
-9.01433e-05
3.51341e-07
-2.32385e-05
8.03219e-05
3.41092e-05
-0.000181611
-0.000157807
0.000241267
1.17877e-05
-0.000115316
-6.1521e-05
4.11413e-05
4.92408e-05
-3.15217e-05
3.42774e-05
0.000104705
-4.99998e-05
-8.02113e-05
-6.63893e-06
-0.000110436
-9.70308e-05
4.64612e-05
-7.21079e-05
0.000126048
9.96282e-06
4.52662e-05
-7.05455e-05
5.30119e-05
-4.90646e-05
-2.87684e-05
0.000135225
-6.81126e-05
9.19473e-05
0.000195547
-5.55663e-05
-0.000169692
1.626e-05
0.000142008
-8.1251e-05
-1.18302e-05
6.81495e-07
0.000111816
2.2348e-05
-6.90714e-05
0.000105279
-3.71325e-05
8.77322e-05
-7.06926e-05
-0.000208655
-1.47725e-05
-0.000257117
4.38349e-05
4.12534e-05
0.0001431
-2.31627e-05
-0.000200521
9.34503e-05
0.000103071
-3.56184e-05
0.000185414
-2.3196e-05
-0.000108072
-9.95575e-05
8.33324e-06
2.35029e-05
-0.000133513
0.0001242
-6.12728e-05
-0.000169369
0.000153678
5.77196e-05
-9.28191e-05
8.11534e-05
0.000242144
9.28779e-05
-0.000245113
-0.000131284
3.40664e-05
4.12446e-05
-1.39449e-05
-4.91308e-05
2.32473e-05
0.000110036
-0.000258021
6.41404e-05
5.15338e-05
5.44994e-05
5.4937e-05
2.46053e-05
6.48657e-05
4.20739e-05
-1.63586e-05
4.98107e-05
5.49406e-05
1.07964e-05
-0.000165056
-0.000111942
2.57231e-06
4.55703e-05
-0.000150149
-7.91776e-05
-3.49991e-05
4.91417e-05
4.02483e-05
5.55301e-08
0.000207918
8.71136e-06
-4.13297e-05
0.000161713
-0.000239987
-0.000151026
2.43423e-05
2.9003e-05
2.61068e-05
0.000196163
-0.000148891
-1.62609e-05
4.1457e-05
-0.000151471
-3.72736e-05
8.55178e-05
-4.6849e-05
-7.87375e-05
-0.000125162
-6.42611e-05
-3.98702e-05
0.000116945
-0.000106703
5.62543e-05
1.45672e-05
0.000105744
-4.85273e-05
7.76813e-05
4.29634e-05
-4.59333e-05
0.000162272
-0.000244966
-2.95362e-05
-5.60888e-05
-2.10507e-05
-5.21162e-05
-0.000130645
0.000140364
3.86876e-05
0.000189251
-9.38452e-05
-4.06705e-05
-6.96324e-05
-7.8208e-05
3.31181e-05
-2.97503e-05
-0.000106747
6.42488e-05
4.14439e-05
1.47249e-05
-5.41463e-05
-5.77827e-06
9.46581e-05
-6.62636e-05
0.000131645
0.00011147
-9.56674e-05
9.56049e-06
3.02754e-05
8.9923e-05
4.00516e-05
5.78619e-05
-8.67043e-05
4.29752e-05
4.95156e-05
-0.000170983
4.78921e-06
9.06822e-05
-0.000178863
-0.000150831
0.000181809
4.60054e-05
-2.61137e-05
0.00010851
-4.87561e-05
9.78616e-05
4.39588e-05
8.73134e-05
0.000177674
3.68368e-05
-0.000218908
2.88741e-05
0.000109425
-1.23263e-05
-0.000189966
-4.16944e-05
-6.08796e-05
5.8591e-05
4.94642e-05
0.000133558
9.80785e-05
4.39245e-05
2.68866e-05
5.11139e-05
-6.69401e-05
0.000125458
-0.000170582
-0.00015018
-7.18344e-05
-2.83539e-05
0.000145227
0.000150309
-0.00014059
-4.90195e-05
8.13687e-05
-8.52064e-05
1.54943e-05
6.81963e-05
-4.39929e-05
2.82179e-05
-0.000214018
5.60493e-06
9.88427e-05
-0.000150222
-0.00010064
3.30735e-05
2.31337e-05
8.97048e-05
0.000181377
6.90139e-05
0.000142208
-7.46145e-05
-7.28108e-05
0.000107945
-1.91315e-05
-1.56915e-05
-3.3528e-05
-5.50773e-06
8.8651e-05
-0.000187219
6.7876e-05
9.47072e-05
-9.88729e-05
-5.51997e-05
-1.48691e-05
4.17698e-07
8.249e-05
-0.000126536
-0.00019907
9.56636e-05
-6.28387e-06
0.000120804
4.84327e-05
-2.77722e-05
5.11406e-05
-1.28548e-05
-9.83502e-05
-6.12414e-05
-9.568e-05
0.000161052
-0.000151914
-6.21943e-05
0.000121492
5.93619e-05
0.000128713
0.000122269
-9.48891e-05
-0.000165249
0.000322395
-0.000118455
-6.42892e-06
-5.86601e-05
7.89107e-05
-0.00011257
-2.44598e-05
-6.69806e-05
5.63839e-05
0.000121519
2.44403e-05
-6.01975e-05
0.000189337
-0.000147358
-1.776e-05
-0.000111116
-0.000103863
-0.000120479
0.000125162
9.6222e-05
-0.000131312
5.62011e-05
-6.24676e-05
-0.00016859
-0.00022448
7.11777e-05
0.000139788
1.34879e-05
-0.000323127
2.902e-06
6.7584e-05
8.99995e-05
9.76722e-05
0.00012687
3.05088e-05
-1.75717e-06
6.56554e-05
-0.000207512
0.000162287
0.000335425
-0.000103935
-0.000159219
0.0001196
-0.000114304
-3.03055e-05
-8.07247e-05
0.000103752
-6.75193e-05
-5.51833e-05
0.000212366
9.90147e-06
-4.21271e-05
0.000101222
1.35257e-05
-0.000210073
0.000138733
0.000162013
9.94848e-05
-0.000277364
-2.87382e-05
-3.59314e-05
-0.000116822
0.000144909
1.08088e-05
-0.00024256
6.32318e-05
6.163e-05
7.08597e-06
6.25894e-05
-5.80165e-05
6.53989e-05
-5.23047e-05
9.30073e-05
-1.07667e-05
-2.2899e-05
0.000232286
-5.90086e-05
-1.00244e-05
6.44793e-05
0.000138722
3.52373e-05
-0.000120869
-5.06666e-05
5.99714e-05
0.000128798
-2.23434e-05
3.3529e-05
-9.90664e-05
0.000178794
-0.00026927
-5.10411e-06
9.91928e-05
-0.000147791
5.84372e-05
-1.58318e-05
-6.89924e-06
0.000136979
-7.81674e-05
-7.65288e-05
0.000120279
-9.7529e-05
-2.66486e-06
1.70548e-06
3.7138e-05
9.05485e-05
8.78751e-05
-6.60436e-06
0.000120179
-4.50953e-05
-7.34632e-05
1.63433e-05
-1.13982e-06
1.64863e-05
-1.06769e-05
1.30215e-05
-2.93821e-06
6.2196e-06
4.70283e-05
3.82466e-05
-0.000116021
-9.78636e-05
0.000184781
-2.1807e-05
-1.30219e-05
-4.40651e-05
3.04722e-05
-2.54563e-05
9.80194e-06
0.000188441
2.27554e-05
-9.11742e-06
-0.00016939
2.88377e-05
-8.8857e-05
-4.48164e-05
0.000278162
-1.92189e-05
3.59145e-05
-7.60953e-05
-9.21388e-05
0.000160143
1.69668e-05
-0.000145333
0.000230458
0.000171668
1.78628e-05
8.81504e-05
0.000101967
-5.37711e-05
-0.000159051
2.47388e-05
-0.000107496
-0.00026403
0.000154752
0.000129821
9.35209e-05
-3.25468e-05
-4.93929e-05
-4.9558e-06
7.54499e-06
6.88076e-05
0.000130524
0.000134385
0.000107425
-0.000103255
-6.50636e-05
3.18213e-05
1.76313e-05
8.69576e-06
-0.000129858
0.000159766
8.97952e-05
8.60835e-05
-9.34717e-05
-0.0002601
0.000119275
-5.51071e-05
8.76549e-06
7.12154e-05
0.000155311
-1.36016e-05
-0.000113631
-4.458e-05
4.5104e-05
0.000276165
-3.0335e-05
-0.0001325
6.0342e-05
0.000221985
-2.12544e-05
-6.51875e-05
-4.96765e-05
-0.000121487
-0.000119209
-5.00509e-05
-7.72342e-05
0.000202804
-9.61185e-05
0.000159284
-4.40486e-05
6.2834e-06
-0.000125817
-0.000138153
8.97336e-05
3.04149e-05
0.00017071
0.000102276
-2.10379e-05
9.44722e-06
4.97233e-06
-2.40513e-05
-4.42605e-05
0.000123047
0.000159113
4.58509e-05
-4.53059e-05
-0.000209529
-0.000103275
0.000154954
-0.000132678
-0.000229376
2.16726e-05
4.65062e-05
-8.56705e-05
8.5049e-05
0.000109769
2.64081e-05
-1.964e-05
0.000134354
8.93977e-05
-9.35048e-06
0.000148888
-0.000111352
1.55793e-05
-0.000105161
1.56552e-05
-1.01806e-05
0.000133324
-0.000177286
-0.000172853
-9.04258e-05
-8.59923e-05
0.0001949
4.35783e-05
7.87512e-05
-0.000120073
0.0001012
0.000247454
-8.42793e-05
3.35469e-05
3.04894e-05
-3.52135e-05
-7.50147e-05
-8.76351e-06
0.000133493
1.35945e-05
0.000107155
4.94461e-05
2.91618e-05
1.05255e-05
-0.000109731
0.000142261
4.13099e-05
-0.000103693
-3.58105e-05
6.94328e-05
-5.24853e-05
0.000104666
-1.4026e-05
-3.17341e-05
2.16389e-05
-4.49377e-05
-4.72891e-05
1.78459e-05
-1.63987e-05
4.96232e-06
-0.000120934
0.000108645
4.21428e-05
-9.59906e-05
0.000150094
-7.15347e-05
-9.60345e-05
7.27701e-05
-0.000286621
1.30606e-06
-5.32232e-05
0.000113555
5.46162e-05
8.47788e-05
5.0431e-05
-0.00017199
3.08572e-05
-0.000143709
0.000195482
0.000249218
-6.13147e-05
1.99036e-05
5.47536e-05
-4.48334e-05
-4.15682e-05
-0.00010014
9.02731e-05
-0.000103037
-0.000142398
7.33117e-05
0.00010317
-6.33537e-05
-0.00011896
-4.10601e-05
-7.70934e-05
-3.41953e-05
6.52187e-05
-5.97304e-06
5.8685e-06
-2.7264e-05
6.48082e-05
-2.54973e-06
5.28526e-05
-9.66359e-05
-7.89824e-05
0.000177372
-0.000181331
-0.000209195
2.58485e-05
-0.000154948
0.000135866
-1.89575e-05
-1.91678e-05
7.75198e-05
1.78728e-05
-0.000134381
7.66065e-05
5.3552e-05
-3.60236e-05
-2.41029e-05
4.5568e-05
6.0976e-06
-0.000174536
-7.77465e-05
4.54576e-05
-1.93361e-05
-1.88842e-05
3.01704e-05
0.000153222
-9.03914e-05
-5.75744e-05
0.000136543
-3.42525e-05
-4.80785e-05
9.92757e-05
-4.39102e-05
8.00197e-05
0.000106481
-0.00026371
-8.81789e-05
-1.26013e-05
0.000102736
-0.000169254
4.92833e-06
8.27763e-05
-7.58393e-05
2.75036e-05
3.79701e-05
4.30836e-05
-5.67223e-05
-7.24015e-05
-2.35316e-05
4.92982e-05
-5.8076e-05
-4.1154e-05
-4.47868e-05
0.000215515
9.64965e-05
2.19156e-05
-0.000157212
-0.00012982
-9.99051e-05
0.000115404
-8.38672e-05
6.46394e-05
-3.43884e-05
-7.78923e-05
-7.26368e-05
1.16355e-05
7.57514e-07
8.919e-05
0.000101199
-0.000183821
-0.000110444
9.36328e-06
6.92473e-05
0.000145059
-1.22433e-05
-0.00010297
0.000130803
-0.000162153
-0.000156167
8.01351e-05
1.67289e-06
6.28479e-05
-1.27011e-05
3.02775e-05
6.66291e-05
-0.00012647
-9.09884e-05
0.000167434
3.31899e-05
6.0091e-05
0.000157467
-2.81673e-05
-8.12127e-05
8.41364e-05
5.08293e-05
7.52998e-06
-0.00014751
6.97777e-05
0.000124386
-5.35367e-05
-6.10331e-05
-7.81552e-05
-1.3602e-05
0.000132847
-3.83049e-05
-0.000139356
-0.000142533
-4.14896e-05
-1.40809e-05
-2.84968e-05
4.24241e-06
5.2736e-05
0.00017477
-5.95577e-05
-0.000119633
-3.05166e-05
-7.68901e-05
-1.49347e-05
-0.000167668
6.78259e-06
1.45123e-06
0.000324534
-1.54284e-05
-2.96233e-05
-7.77037e-05
-0.000174425
-0.000134525
-2.09759e-05
8.14308e-05
-6.57002e-06
0.000183382
4.56085e-05
-4.36218e-05
3.67534e-05
8.31252e-06
-0.000187992
3.87115e-05
0.000149365
4.21733e-05
2.73157e-06
3.89041e-05
-4.77659e-05
-2.13885e-05
-0.000132319
1.13654e-05
-0.000103107
-2.3263e-05
0.00020138
-9.23629e-05
-4.12874e-05
-0.000142805
1.18987e-05
7.2181e-05
-6.2811e-05
-3.87129e-05
9.08272e-07
0.000130751
5.50399e-05
0.00016134
-7.9983e-05
-0.000102877
7.14324e-05
7.56677e-05
2.80002e-05
5.35793e-05
0.000154398
-0.000116955
-0.000136307
7.3039e-06
9.31527e-05
0.00013634
5.61125e-05
-7.99251e-05
6.34114e-06
-7.89159e-05
-0.000247033
-3.21522e-05
4.2235e-05
-5.29366e-05
0.000264762
-0.00015022
8.0309e-05
4.78687e-05
-3.80124e-05
-2.77094e-05
-6.72069e-05
-0.000137098
1.50839e-05
-5.43697e-05
-0.000221417
0.000231347
-4.8661e-05
0.000207248
-5.97353e-05
9.35048e-06
-3.45833e-05
-9.56981e-06
4.34741e-06
-0.000105757
-9.64603e-05
-0.00011361
0.00026348
-6.4587e-05
-0.00013453
5.34272e-05
0.000105585
0.000220138
-2.33587e-05
-2.82519e-05
0.000162832
-3.53486e-05
-1.59084e-05
7.12262e-05
-0.000103009
0.000116252
6.21305e-05
-4.97955e-05
4.82777e-05
6.37566e-05
5.51005e-05
-4.35468e-05
-0.000221001
4.89166e-06
5.45166e-05
7.79014e-05
0.000225202
0.000106975
-0.000172029
-0.000211637
0.000186972
-5.69755e-05
-0.000120961
-6.17502e-06
4.5408e-05
8.74933e-05
-3.65407e-05
-5.56285e-05
7.41225e-05
-7.55418e-05
7.54603e-05
-0.000113895
-0.000132628
8.14199e-05
-3.92839e-05
-2.41692e-05
6.03432e-05
-0.000162882
-8.73765e-05
0.00023868
0.000105264
-0.000134894
6.95121e-05
6.57024e-05
-5.91815e-05
1.88174e-06
0.000104532
-4.7563e-05
4.59141e-05
3.28653e-05
1.57184e-06
0.000241854
-5.31214e-05
-1.41275e-05
5.90796e-05
2.69685e-05
-9.82103e-06
3.40049e-07
9.49437e-06
-8.75685e-05
-0.000155262
-0.000174728
-0.000168386
0.000204166
-9.27774e-05
-7.87614e-05
-9.47469e-05
0.000137434
3.17014e-05
3.29224e-05
-6.98874e-05
0.000108663
0.000143522
-9.29709e-05
-0.000164234
-7.35639e-05
0.000149603
0.000158889
0.000131901
9.2858e-05
-0.000162678
-0.000217831
-0.000122826
0.000135699
-6.10627e-05
3.03431e-05
3.91037e-05
-4.56995e-05
-1.09688e-05
-0.000205108
-4.82692e-05
0.00024976
2.23577e-05
-0.000266674
5.12927e-05
2.36467e-05
1.68305e-05
-0.000188194
0.000150699
0.000132457
8.27981e-05
6.397e-05
6.79521e-05
-7.79009e-05
-3.37057e-05
0.000100728
-1.92395e-05
7.9835e-05
-8.11815e-05
-2.73754e-05
-5.4488e-05
-2.65236e-05
-8.54954e-07
3.96029e-05
5.33172e-05
0.000160374
7.90589e-05
7.30916e-05
-0.000125878
-9.76778e-05
-0.000209203
-5.73216e-05
1.18511e-05
0.00016552
1.59168e-05
0.000137038
-7.24546e-06
1.48534e-05
-0.000239424
2.30658e-05
4.79784e-05
0.000138188
7.88276e-05
-9.79385e-05
-0.000137419
3.50303e-05
-7.54158e-05
-8.45391e-05
-0.00012433
1.01043e-05
-1.07834e-05
0.000267048
3.58126e-05
-1.70898e-06
0.000119925
0.000102289
-1.77203e-05
-5.75881e-05
-8.3898e-05
0.000177216
-4.58763e-05
-5.49643e-05
-5.27126e-05
7.57814e-05
-1.64651e-05
-0.000104607
0.000154897
-2.71728e-05
-0.000130915
0.000177209
9.1835e-05
-0.000132402
4.66328e-05
5.29168e-05
5.87287e-05
-1.13846e-05
-5.01479e-05
4.49227e-05
-8.71469e-05
-6.2409e-05
-9.92611e-05
0.000114711
-7.81752e-06
7.37627e-05
7.97377e-05
-7.87758e-05
-2.75481e-05
3.42443e-05
0.000172716
-1.71899e-06
-6.86813e-05
5.97939e-05
-0.000273729
7.54901e-05
0.000112107
0.000315954
-2.33902e-06
-0.00012108
-0.000164827
1.86532e-06
7.84969e-05
-8.61406e-05
-5.41557e-05
0.000132669
3.42538e-05
-9.40694e-06
5.04181e-05
2.20117e-05
-2.6967e-05
6.22384e-05
-8.17485e-05
-5.73017e-05
-0.000168221
-2.70893e-05
-5.378e-05
-8.96441e-05
2.8003e-05
3.80917e-05
5.29971e-05
1.94084e-05
-2.59471e-05
-0.000100799
-0.000100261
-2.43243e-05
1.87646e-05
0.000173474
0.000156782
-0.000133507
-0.000131936
-0.00012789
-0.000111251
0.000178002
-3.83556e-05
-9.73559e-05
0.000195228
0.000113948
8.58554e-05
-1.29967e-05
-6.36204e-05
9.10468e-05
-1.59387e-05
1.50497e-05
6.74325e-05
6.59807e-06
3.10829e-07
7.67061e-07
1.6547e-05
3.2821e-05
-2.76e-05
3.98527e-05
4.44066e-06
2.15388e-05
-5.04217e-05
4.87003e-05
-6.838e-06
0.000124492
-0.000224229
-9.27579e-05
-0.000115311
0.000146228
-1.33878e-05
0.000128835
-0.000284823
-0.000238946
0.000205283
0.000181669
-0.000107157
-0.000200682
-7.44555e-05
-0.000158575
-5.16326e-05
0.000333133
0.000101465
-5.85804e-05
7.60469e-05
8.30023e-05
5.84717e-05
-0.00010718
-0.000186688
-3.04952e-05
-0.00010244
-6.2333e-05
0.0001341
6.87391e-05
-9.54397e-05
-9.98133e-05
-9.00007e-05
-3.85386e-05
4.37489e-06
-1.36658e-05
-3.5479e-05
6.88295e-05
-0.000135861
-4.40052e-05
0.000102677
4.34109e-05
-3.9045e-05
2.10521e-05
9.61424e-05
-9.34453e-05
4.93568e-05
2.55565e-05
9.33337e-05
-9.62552e-05
3.27828e-05
9.13381e-05
-1.7977e-05
-5.92789e-05
1.53997e-05
-0.000182524
-0.000177623
3.79892e-05
0.00017855
0.000158101
-3.51727e-05
6.38594e-05
-0.000103623
-2.65629e-05
-2.24446e-05
9.72222e-05
-3.11231e-05
3.43552e-05
6.09994e-05
-5.28805e-06
6.26396e-05
0.000188357
-3.49679e-05
-0.000238197
0.000117567
0.000213274
-0.000142614
-7.87992e-05
-0.000139841
0.000117895
6.81188e-05
-0.000204606
-4.00391e-05
0.000205286
2.7924e-05
-6.82839e-05
3.53321e-05
0.000199137
6.86059e-06
-7.17974e-05
5.80242e-05
2.53727e-05
2.65662e-05
-6.10013e-05
4.64395e-05
6.03569e-05
6.08648e-05
-0.000110143
-0.000110468
-1.39648e-05
0.000103002
-1.41454e-05
-2.55269e-05
-0.000120594
-0.000103719
-9.09986e-05
9.41975e-05
-0.000150199
6.14472e-05
7.2517e-05
0.000214771
4.58306e-05
-0.000218036
-7.33128e-05
-5.88576e-05
9.01547e-05
1.51224e-07
7.47307e-05
-0.00023592
-1.40892e-05
8.39473e-05
-4.75668e-05
-8.94142e-05
7.91741e-06
-0.000101286
6.22675e-05
-1.7568e-05
-7.2781e-05
6.61309e-06
-7.25221e-05
-5.73986e-05
8.21993e-05
-0.000179758
0.000177889
0.000158553
-0.000124959
-8.1067e-06
-1.9573e-05
-0.00013336
-1.64029e-05
-4.96608e-05
-4.331e-06
-8.90414e-06
-7.25059e-05
0.000100859
-0.000166215
-0.000160918
2.82479e-05
0.000116553
2.11033e-05
-5.77429e-05
-4.81177e-05
-0.000105646
2.99598e-05
-3.65095e-05
-0.000104429
8.14414e-05
-5.50497e-05
-0.000156791
-6.00398e-05
-3.44531e-06
9.0202e-05
-7.68809e-05
-1.15205e-06
-2.2306e-05
7.88624e-05
-5.81273e-05
0.00013948
7.39226e-06
-0.000120269
0.000288169
-5.12898e-05
8.62149e-06
2.21271e-05
9.08787e-05
-6.67057e-05
-3.57485e-05
0.000165453
5.44614e-05
0.00015843
-0.000120169
1.4627e-05
2.28845e-05
-5.13985e-05
0.000134277
-0.000151545
-8.2133e-05
-2.64018e-05
-0.000188697
-0.000146542
4.98436e-05
4.31194e-05
0.000179081
6.73436e-05
-0.000170476
-0.000112365
6.07804e-07
6.43497e-06
-3.73344e-06
-0.000106348
-4.2933e-05
-8.22889e-05
4.75211e-05
0.000128338
0.000102371
0.000100059
-0.000193361
-5.71366e-06
8.29862e-05
0.00017325
6.22002e-05
0.000116635
-6.81693e-06
9.44386e-05
-5.20895e-05
-0.000145564
4.82143e-05
-0.000103794
-3.02563e-07
-5.17677e-05
3.70899e-05
3.41889e-05
7.77805e-05
6.47677e-06
-3.10771e-05
5.53543e-05
-7.11298e-06
3.61153e-05
-5.59096e-06
-3.25206e-05
-2.48172e-05
0.000137124
-0.000111857
-5.99404e-05
-8.53112e-05
0.000140049
2.92035e-05
-0.000212154
-5.67571e-06
-6.0457e-05
-4.87129e-05
7.5609e-05
-0.000180651
9.5729e-05
-0.00010157
2.00635e-05
-2.56358e-05
-6.07932e-05
-7.55193e-05
6.65144e-05
4.08901e-05
5.38912e-05
-8.22138e-05
-1.88769e-05
4.5065e-05
4.04847e-05
-0.000102225
-6.69284e-05
9.1204e-05
-5.20004e-06
-1.02486e-05
0.000173183
0.000149309
-0.000118864
-0.000404483
9.38412e-06
0.000192774
6.14906e-05
-8.78683e-05
-0.000212384
2.72288e-05
0.000174088
7.01777e-05
-9.49635e-06
7.2746e-05
-0.000261452
7.38456e-05
9.70064e-05
-0.000148593
-0.000104279
0.000121393
-3.1827e-05
-5.97383e-05
4.50882e-05
8.444e-05
2.94381e-05
4.02576e-05
0.000204793
-0.000198685
-7.61099e-05
0.000144883
-0.000155522
4.87142e-05
0.000111584
0.000108432
3.19362e-05
5.95214e-05
2.33032e-05
7.62369e-05
-2.7798e-05
6.12203e-05
-0.000135484
2.69874e-06
0.00012116
0.000140532
-0.000109764
-1.84748e-05
-0.000121267
-0.000127335
9.74011e-05
0.000117665
0.000111457
3.3859e-05
-7.36685e-05
-2.26406e-05
4.7595e-05
-4.67887e-05
1.43966e-05
-0.000135902
-0.000140431
0.000149941
0.00015429
-6.85421e-05
-3.09737e-05
3.71424e-05
8.11701e-05
-5.28805e-06
-6.42452e-05
-0.000112082
-5.49015e-05
-4.76011e-05
7.92544e-05
-4.95107e-05
0.000117879
0.000118933
-2.52615e-05
-0.000108256
-0.000101611
-3.56493e-05
-9.30284e-05
-1.68032e-05
0.000122462
9.41728e-05
0.000101925
-0.000129049
4.97559e-05
0.00015071
-2.66894e-06
-3.25625e-05
-0.000143962
0.000144341
-5.36158e-05
-0.000108656
-2.62941e-05
-2.21026e-05
-7.63187e-05
7.17017e-05
0.0001602
-5.72265e-05
0.000157205
0.000129273
5.34302e-05
0.000230396
-8.1287e-05
8.60873e-05
-2.54328e-05
7.6401e-06
8.19073e-05
4.40381e-05
7.64277e-05
-0.000201893
0.000163989
5.15343e-05
7.872e-07
-0.000145173
-3.35393e-07
-1.41328e-06
3.32425e-05
0.000166506
-0.000188313
-4.45417e-06
3.62415e-05
-0.000170372
0.000120218
2.85038e-05
-0.000190076
6.11388e-05
0.000108372
0.000178331
7.95857e-05
2.30554e-05
-7.98831e-05
0.000151346
4.52236e-05
-0.000121916
-0.000141078
0.000126744
0.000235041
3.94104e-05
-0.000152435
-6.23389e-05
4.4752e-05
-2.32508e-05
-1.39055e-05
0.000275419
-2.21422e-06
0.000138646
-2.82538e-05
-0.000142596
-0.000236406
-5.53995e-05
8.35541e-05
0.000143342
-1.65816e-05
4.28041e-05
-1.18822e-05
2.47533e-05
-0.000145381
1.38446e-05
1.069e-05
-5.28983e-05
8.87635e-05
8.50485e-05
0.000132794
-0.000187478
9.94513e-05
0.000109987
0.000178268
-9.35321e-05
-0.000197495
0.000174935
-0.000193549
1.9989e-05
-9.47507e-05
3.82964e-05
-6.90375e-05
-0.000117577
0.000109956
0.000126849
3.60869e-05
2.54193e-05
-9.99777e-05
7.33564e-05
0.000119167
-4.53938e-05
-1.22637e-05
-6.73934e-05
9.15444e-05
0.000194933
1.76947e-05
2.59328e-05
8.32391e-05
0.00016436
-0.000124117
-0.000112803
-6.20768e-05
6.6439e-05
-8.72231e-05
0.000240252
-3.59791e-05
-0.000116155
6.72325e-05
8.80565e-06
-0.000180085
0.000116638
5.87788e-05
-0.000164605
-0.000100349
-5.00429e-05
0.000170566
6.70133e-05
5.19875e-05
3.12049e-05
-6.62128e-05
0.000102589
-7.08638e-05
-1.53864e-05
-0.000182375
3.45395e-05
0.00013051
5.73103e-05
6.22524e-05
-8.27593e-05
-5.49337e-05
-5.65827e-05
-8.272e-05
-5.58998e-05
-4.71341e-05
-0.000223264
-9.20803e-05
0.000162275
2.71547e-05
-8.60451e-05
-0.000221977
-3.30155e-05
7.85998e-05
5.75596e-05
9.08842e-05
0.000211023
3.83658e-06
-4.06333e-05
-3.84999e-05
5.54973e-05
-0.000129026
5.03566e-06
-2.54705e-06
9.75421e-06
0.000104042
-6.75068e-05
-1.32581e-05
7.68562e-06
2.4825e-05
8.04734e-05
7.9515e-05
-1.00782e-05
-0.000210499
-0.000176068
0.000233879
-0.000119719
0.000169343
3.68361e-06
-2.93815e-05
0.000148423
-7.47133e-05
2.23563e-05
0.000160972
2.77449e-05
2.89056e-05
-0.000174295
2.95574e-05
1.78127e-05
-5.37033e-05
-8.00064e-05
0.000182666
-0.000103575
-8.89706e-05
0.000191723
3.6416e-05
3.59546e-05
-2.72068e-05
2.74011e-05
8.23662e-06
8.36657e-05
-5.46405e-05
-1.48586e-05
5.93339e-05
-2.0687e-06
-4.17973e-05
-0.000146818
-0.000131834
0.000136816
-8.34453e-05
-4.69745e-05
0.000121195
-7.25404e-05
0.000109093
0.000107276
-5.86144e-05
9.43054e-05
5.86587e-05
-1.19295e-05
-5.47009e-05
-9.01404e-06
-0.000169817
-3.4031e-05
8.50563e-05
0.000250702
9.92577e-05
2.06629e-05
7.27487e-05
-6.9545e-05
6.56084e-05
1.50807e-05
9.88157e-06
5.91466e-05
-0.000167307
4.09848e-05
1.98286e-05
-0.00019099
-4.62823e-05
6.72091e-05
3.38181e-05
-4.45747e-05
8.08442e-05
-3.50641e-05
-1.30769e-06
2.94782e-05
-6.86164e-05
-1.6337e-05
6.34872e-05
0.000137446
-8.75272e-05
-4.68859e-05
-0.000115866
-1.41906e-05
6.11935e-05
6.02262e-05
-2.6634e-05
-0.000115595
0.000123004
-8.32102e-05
-0.000119006
1.51398e-06
0.000250619
-3.45826e-05
-0.000100958
0.000161563
-4.14593e-05
-6.59169e-05
0.000147081
-0.000172569
-0.000117564
5.94868e-05
-3.88066e-05
0.000128401
-0.00011017
-8.11892e-06
-2.57792e-05
-2.64448e-05
-6.01853e-05
-0.000115153
-0.000146845
2.31557e-05
-4.65917e-05
-8.08714e-05
1.65791e-05
9.6868e-05
0.000137842
0.000137351
-0.000161041
-0.000155634
5.87925e-05
9.02698e-05
8.77471e-05
-0.000137252
-0.000128316
9.87586e-05
6.80698e-05
-0.000104396
2.22806e-05
0.000123595
0.000229795
9.33368e-05
-0.000150554
3.514e-05
-8.87464e-05
-2.78177e-05
4.84177e-05
2.67844e-05
-5.83456e-05
-0.000119119
-0.000201348
0.000128686
0.000212987
-0.000118259
-0.000199952
0.000232289
8.4697e-05
3.18105e-05
-3.79402e-05
-0.000151657
-3.94525e-05
0.0001911
8.20971e-05
0.000121604
-5.07594e-05
-0.000217007
-1.9628e-05
3.24063e-05
-0.000139516
5.00429e-05
0.000238367
5.57237e-05
-0.000111562
-0.000112812
-4.40464e-05
-8.97048e-05
3.73675e-05
0.000162939
-9.96571e-05
-6.84061e-05
4.09507e-05
-0.000214017
2.2679e-05
9.88254e-05
1.8699e-05
-3.87053e-05
-0.000183069
0.00023955
5.08921e-05
-0.00010608
1.36889e-05
-8.18564e-05
-1.26741e-06
0.000217549
-3.72954e-05
-5.45772e-05
-3.96705e-05
-0.000124589
-1.53825e-05
0.000133888
-1.85787e-05
-7.63219e-06
-0.000181797
0.000104016
-0.000267306
0.000248983
-0.000100412
2.25231e-05
-0.000149178
-8.42757e-05
-5.26783e-05
-0.000189075
7.96068e-05
0.000190362
-2.0697e-05
-1.29958e-05
-3.26358e-05
0.000111372
-3.97103e-05
4.42812e-05
7.68083e-05
4.97804e-06
4.48446e-05
6.84836e-05
8.51351e-05
-2.78761e-05
-5.08383e-05
-5.94254e-06
-3.45497e-05
4.24776e-06
2.66649e-05
2.45394e-05
1.79337e-05
-4.9951e-05
0.00013559
-0.00015614
-0.000116385
-0.000147795
2.39358e-05
7.69878e-05
0.000209984
0.00026797
0.000112653
-2.39233e-07
4.70318e-08
0.000122635
2.68683e-05
0.000136105
7.13214e-05
5.33632e-05
2.13925e-06
-5.04665e-05
9.32727e-05
-3.38161e-05
-4.03444e-05
0.000102382
-2.56088e-05
0.000148119
-5.70344e-05
8.70368e-06
1.16815e-05
4.72608e-05
6.99214e-05
-3.42727e-06
-1.64905e-05
-0.000187647
-0.000141548
-4.49879e-05
-5.09149e-05
-0.000143885
2.79229e-05
-0.000109628
4.31162e-05
0.000102843
0.000124397
-1.95104e-05
-2.51957e-05
-0.000163646
-0.000118563
-1.70753e-05
0.000207291
0.000160204
0.000105002
-0.000177991
-1.46617e-05
0.000127924
-0.000113961
-0.000149479
-1.85454e-05
2.44317e-05
2.36384e-05
-0.000111209
1.4001e-05
8.21275e-06
-0.000110529
0.000123371
6.79858e-05
3.94465e-05
3.68947e-05
-6.72285e-05
7.91205e-06
-0.000156929
-4.8525e-05
3.27935e-05
-8.68657e-05
-1.71168e-05
0.000130049
7.24555e-05
-0.000175969
-5.71015e-05
5.79538e-05
0.000121873
-0.000120023
5.04598e-05
-8.05949e-05
6.61438e-05
-1.65049e-05
-0.000222247
-0.000132735
0.000256981
0.00010581
8.38139e-05
-0.000280655
6.71466e-05
0.000124566
-5.74529e-05
-4.89056e-05
6.70421e-05
4.12744e-05
-0.000133511
-2.51211e-05
6.72935e-05
-0.00018081
-8.366e-05
-1.72723e-05