# vtk DataFile Version 1.0
Net Charge Density
ASCII
DATASET STRUCTURED_POINTS
DIMENSIONS 256 128 1
ORIGIN 0 0 0
SPACING 0.15625 0.15625 1
POINT_DATA 32768
SCALARS rhonet float
LOOKUP_TABLE default
-0.000194241
-3.86534e-05
0.000195283
0.00017464
7.94434e-05
-0.000430249
-4.71191e-05
-1.8241e-05
9.99897e-05
-0.000126909
0.000328954
0.000264305
0.000191564
0.00012689
-0.000110903
-7.11906e-05
-1.48902e-05
-3.50613e-05
7.38931e-05
-8.23911e-05
-0.000232249
0.000194152
0.000279258
0.000216093
1.82993e-05
0.000232225
0.000258395
0.000275055
0.000206092
3.15474e-05
3.89245e-05
7.1486e-06
0.000100416
0.000197801
0.00032735
6.29269e-05
4.75433e-05
-9.78049e-05
6.78562e-05
-8.33337e-05
4.12879e-06
0.000189053
-3.85831e-05
0.000317049
-0.0001724
-7.21477e-05
0.000349675
0.000112893
0.000296489
7.83976e-06
0.000472401
-0.000278437
6.37616e-05
-1.91869e-05
-8.79588e-06
1.71771e-06
0.000247014
0.000143953
4.56985e-05
5.31171e-05
0.00021385
-6.17362e-05
0.000231148
0.00013784
8.38243e-05
0.000345454
-0.000146402
0.000156705
0.000262109
-0.000257278
-0.000168367
-7.04376e-05
0.000229689
-1.85618e-05
0.000223614
0.000379787
0.000241832
9.95591e-05
-0.000172555
-0.000169689
-1.84763e-05
0.000247604
-0.000138675
-8.90481e-05
0.000182524
0.000423413
0.000311545
0.000290567
1.13071e-05
-0.000135729
9.85075e-05
0.000107975
0.000121738
0.00017525
1.23284e-06
-7.33429e-05
1.47375e-05
0.000264385
8.52081e-05
6.6061e-05
-0.000333161
0.000292011
0.000141967
-1.26243e-05
0.000240991
0.000132416
0.000128238
-0.000138069
9.5261e-05
0.000193891
-4.47973e-05
-4.13293e-05
0.000183946
-6.38415e-05
0.000108668
0.000170762
4.12235e-05
-0.00012189
-7.90369e-05
-7.60983e-05
-4.78063e-05
0.000308567
-9.71879e-05
0.000216833
0.000159333
-0.000347253
0.000152006
0.000600569
-4.84426e-05
0.000219379
6.76838e-05
-3.51738e-05
9.61066e-05
-5.98673e-05
0.000165861
0.000113798
0.000106571
0.000195195
2.44777e-05
8.21976e-05
-5.74429e-05
-0.000203474
6.85048e-05
0.000106142
0.000224912
2.92215e-05
0.000177977
-1.48265e-05
0.000167302
-3.57609e-05
-0.000138141
0.000230597
0.000394731
5.62825e-05
-6.66901e-05
-0.000124239
0.000374043
-0.000169619
0.000114068
0.000304439
0.000300382
3.97274e-05
-4.39918e-05
-3.54263e-05
-8.60922e-05
0.00015123
0.000155295
0.000334441
6.90568e-05
-8.78548e-05
0.000319697
-3.15721e-05
-0.000108822
7.39566e-05
-2.27229e-05
0.000174125
0.000183853
0.00019054
6.94267e-05
-2.01414e-05
0.000359477
-1.96671e-05
5.89574e-06
-8.92342e-05
4.68108e-05
8.65422e-05
0.000296875
-0.000233
-0.000288347
0.000127464
0.00021028
9.51687e-05
1.00696e-05
-2.44034e-05
0.000133579
0.000365262
3.66132e-05
-3.71593e-05
1.32258e-05
0.000137257
0.000382275
0.000205656
2.31591e-05
4.5912e-05
0.000109629
-0.000107924
8.17459e-05
0.000353369
0.00026419
4.65739e-05
5.97725e-05
0.000189631
0.000140726
0.000151972
0.000304535
2.52025e-05
0.000220374
0.000116049
-2.75378e-05
-0.000199001
-0.000289976
0.000113537
8.45891e-05
-0.000187594
0.000206787
0.000379848
-2.55976e-05
0.000113808
0.000129893
8.90217e-05
6.35451e-05
1.95663e-05
0.000233858
-0.000171776
-0.000123896
9.60339e-05
-2.17177e-05
0.000199833
0.000309753
0.000154518
3.88501e-06
0.000138395
-3.48841e-05
0.000228913
-0.000115409
0.000319683
0.000140651
0.000130516
-0.000107964
-0.000225955
-0.000202561
7.69133e-05
-3.73364e-05
-0.000157882
0.00016777
0.000154039
-0.000244582
4.77009e-05
-2.72878e-07
-7.50483e-06
-0.000160196
-6.0718e-05
0.000100673
-2.30641e-05
0.000316502
-7.44297e-05
-2.19741e-05
0.000149761
-1.26692e-05
-0.00011264
-0.000131947
-0.000112366
5.47828e-05
2.13708e-05
-2.82334e-05
-0.000131952
-0.000132032
0.000176325
1.18028e-05
-7.93964e-05
-0.000201155
-8.16861e-05
7.87179e-05
-0.000186804
-0.000196695
-9.574e-05
3.29826e-05
-0.000244425
9.3708e-05
6.89633e-05
5.34714e-05
-0.000284662
7.08626e-05
-4.24957e-05
0.000145543
2.22687e-05
-7.64269e-05
3.64364e-05
-0.000247044
-1.77051e-05
-0.000328838
-3.32143e-05
0.000161565
-0.000232208
4.68489e-05
-0.000189543
0.000240541
0.000157056
0.00022379
-2.41275e-05
-0.000354105
4.69226e-05
0.000147171
2.85264e-06
-0.000235543
-0.000257124
-0.000119103
6.02712e-05
-1.5627e-05
-0.000240202
-0.000154104
0.000284704
-0.000180341
2.81265e-05
-5.21538e-05
5.38412e-05
9.36224e-05
-0.000119913
1.71681e-05
-0.000232245
-1.48064e-05
7.04436e-05
-5.45941e-05
0.000150683
-5.2751e-05
1.3175e-05
-0.000273671
-0.000101671
-0.000171563
3.44992e-05
7.28194e-05
-9.75986e-05
0.000161177
1.39819e-05
-6.0997e-05
-0.000104577
-3.59856e-05
-7.1604e-05
0.000106485
-7.76239e-05
0.000210189
2.18176e-05
4.62395e-05
3.43701e-05
-0.000218817
-8.6751e-05
-7.15053e-05
4.0539e-05
3.75328e-05
0.00017022
-1.9628e-05
8.23545e-05
2.77965e-06
-0.000102116
2.68507e-05
-0.00016024
-2.629e-05
-0.000303538
-4.43591e-05
-0.000122103
-2.01355e-05
0.000111911
0.000148345
-2.36537e-05
-0.00015908
-8.89556e-05
3.44994e-05
-5.30411e-05
-3.09036e-06
-6.50113e-05
-3.71407e-05
-5.85117e-05
-6.46443e-06
4.59431e-05
-0.000336755
7.96728e-05
-0.000109737
8.60158e-05
4.01858e-05
-2.82954e-05
0.00013659
-0.000142159
-0.000151762
-3.31132e-05
-0.000137545
-5.84796e-05
8.08772e-05
1.60624e-05
-0.000162301
-0.00020515
-7.42227e-05
-0.000293349
0.000175724
6.69175e-05
0.000138079
5.80179e-06
-0.000113185
-0.00010556
-0.000142255
-5.45932e-05
-1.05845e-05
-0.000183659
-2.56653e-05
6.18962e-05
-9.84889e-05
5.56128e-06
3.61622e-05
0.000109213
-0.000129006
0.000166562
7.88388e-06
-0.000198579
-6.20098e-05
-1.26051e-05
-1.87068e-06
0.000221959
0.000107753
0.000103186
-7.34513e-05
0.000121757
-0.000217792
-0.000174134
-0.000148211
-4.97937e-05
-9.01448e-05
-2.40302e-05
3.68105e-06
0.000105506
-0.000127633
-0.000252581
-0.000115961
-0.000163338
0.000175291
-0.000163226
-0.000202545
-0.000136926
-0.000142863
-1.76795e-05
6.16042e-05
8.47894e-05
-0.000134593
4.48343e-05
0.000113468
-0.000145135
-0.000120968
-5.38453e-05
1.21302e-05
-0.000227149
-0.000379257
-9.66595e-05
1.4022e-05
-0.000123053
-5.45621e-05
6.02186e-05
-5.05422e-05
-7.65054e-05
-6.69286e-05
-0.000120171
2.83837e-05
4.73424e-05
-0.000193659
-0.000162406
1.60898e-06
0.000106743
-8.13965e-05
-0.000104313
-5.98747e-05
-1.32193e-05
-3.06137e-05
-4.47305e-05
-9.47036e-05
0.000125675
-9.42947e-05
7.35795e-05
-7.41158e-06
-7.34576e-05
-0.000201709
2.0906e-05
-3.38606e-05
6.616e-06
-7.02993e-05
8.1534e-05
-9.59563e-05
8.97254e-05
6.85562e-05
-6.85115e-05
-0.00012866
6.46372e-05
-0.000108608
-4.50471e-05
4.49764e-05
-5.43012e-05
-0.000293601
2.4261e-07
2.64787e-05
0.000125467
8.4185e-05
-2.9698e-05
6.37084e-05
-4.55179e-05
-5.36173e-05
-0.000242661
-1.45679e-05
0.000149607
-2.13368e-05
-0.000103118
-0.000111382
-0.000286878
-8.32172e-06
-0.000129941
5.81713e-05
5.7993e-05
0.000116211
3.69037e-08
3.92356e-05
-9.96224e-05
6.41057e-05
-0.00014807
0.000111732
3.35772e-05
0.000545022
0.000226485
-0.000103788
0.000114254
-9.64752e-05
-6.95735e-05
-9.03887e-05
-0.000126351
9.36192e-05
-0.000124874
-1.55987e-05
4.88071e-06
0.000119978
-0.000196298
-2.17947e-05
9.98672e-05
4.52459e-05
-5.21932e-05
0.000135845
-1.35778e-05
8.85298e-05
-9.15579e-05
0.000101376
-2.60867e-05
-0.000246363
0.000126402
1.02839e-05
-8.81975e-05
-1.92167e-05
-7.23151e-05
-0.00017691
3.166e-05
7.70446e-05
0.000102358
-8.31191e-05
-0.000180304
8.15797e-05
4.8799e-06
-5.87234e-06
3.86775e-05
-4.5205e-05
0.000261095
0.000193495
-6.35694e-05
0.000144404
-0.000221211
-0.000114603
4.92374e-05
0.000156265
0.000215848
-6.76063e-05
8.53052e-05
7.87309e-05
-0.000110301
-4.22621e-05
-2.52007e-05
-0.000157258
-2.53799e-05
-0.000261174
9.16471e-05
-0.000159507
0.000204257
1.11787e-05
4.96443e-05
9.93103e-05
7.16917e-05
4.04769e-05
6.11292e-05
0.00014949
-0.000279758
-5.92024e-05
-2.54294e-05
-0.000243157
-0.00014376
5.21019e-05
-9.34838e-06
-5.32233e-05
-0.00012387
2.39648e-05
7.11576e-05
0.000174901
0.000122332
8.06653e-05
4.22436e-05
-8.21879e-05
-0.000136176
-8.63969e-05
-6.47979e-06
-1.0321e-05
-3.66702e-05
0.000134427
-0.000119755
2.71342e-05
0.000207298
-1.2488e-05
6.47198e-05
-6.60657e-06
0.000102661
9.44947e-05
0.000157214
-0.000111486
0.000113921
-0.000222978
-0.000118384
7.81489e-05
0.000102227
-8.80938e-05
-0.000217226
-5.02099e-06
2.14747e-05
0.000110017
0.000158193
-9.78087e-05
9.04846e-05
-2.38775e-05
7.06812e-05
-3.99677e-06
-0.000158178
1.3042e-06
-0.000112172
3.50301e-05
-1.98083e-05
0.00021346
1.69973e-05
0.000159315
-1.18453e-05
-9.08769e-05
5.87888e-05
1.97908e-05
-0.000194863
-8.56125e-05
2.87998e-05
-0.000166789
2.2254e-05
4.23184e-05
-2.70311e-05
-7.32652e-05
-6.54499e-06
6.12782e-05
0.000160763
0.000177976
-0.000169596
-6.89274e-05
-1.46807e-05
7.58842e-05
-0.000232899
-0.000230319
-1.84904e-05
0.000143613
-5.57555e-05
8.38526e-05
0.000354686
0.000157177
2.53459e-06
-0.000196582
-0.000109827
-6.52294e-05
0.00011821
-3.87473e-05
9.25177e-05
8.74035e-06
-0.000221963
0.000109002
-8.20553e-06
1.44199e-05
-0.000132248
-0.000171743
6.86379e-05
0.000236252
-5.73556e-05
2.95473e-05
0.000101507
-2.28179e-05
0.000160211
5.77322e-05
-0.000140673
-8.91921e-05
0.000143353
-6.60121e-05
-0.000220893
-0.000113675
-0.000109278
2.70773e-05
-1.61869e-05
-0.000102663
1.51251e-05
0.000214032
7.87072e-05
-5.40446e-05
-0.000106014
4.44957e-05
0.000114328
0.000157766
-2.47465e-05
6.73276e-06
5.8827e-05
-0.000130438
0.000110303
-0.000175887
-0.000125073
-0.000167071
-6.98691e-05
7.14799e-05
0.000229352
0.000156794
4.5801e-05
9.49574e-05
-0.000205827
9.61346e-05
-0.000244865
-0.000211575
-1.91914e-05
-0.000114236
0.00020386
-7.00122e-06
5.88658e-05
-0.00014426
6.44135e-05
-0.000252872
2.73378e-05
3.54203e-05
-5.7701e-05
0.0001674
-3.47942e-05
-0.000125032
-0.000115776
-6.7451e-06
-7.63285e-05
-0.000131684
8.77536e-05
0.00015179
0.000255203
4.63317e-05
-8.08138e-05
-7.05229e-05
0.000147586
-2.03513e-05
0.000113789
-0.000219978
7.9755e-05
-2.73446e-05
-3.70347e-05
-8.63795e-05
-1.98691e-05
-3.3978e-05
-9.5539e-05
-0.000202045
-1.42215e-05
1.2888e-05
6.22962e-06
5.62358e-05
-5.96719e-05
-3.74647e-05
-6.79952e-05
7.66761e-05
9.50997e-05
0.000190725
-7.02874e-05
-0.000259272
-6.67127e-05
-6.81746e-05
3.86341e-05
7.81701e-05
-8.22751e-05
8.08947e-06
0.000311033
6.64848e-06
9.6951e-05
7.25542e-05
1.18221e-05
-0.000146223
0.000201809
-2.3693e-05
-0.000119083
8.85044e-05
-2.82126e-05
-8.9612e-05
-0.000255098
-3.23881e-05
0.000224448
6.50866e-06
8.40143e-05
3.26498e-05
0.000178887
-0.000216577
-0.000180638
-0.000164445
-7.26955e-05
-8.18928e-05
0.000192196
-0.000161476
-3.13441e-05
8.29352e-05
-0.000134661
-0.000182377
-5.38254e-05
-2.22648e-05
0.000197392
-0.000120456
-0.000249716
-0.000141854
9.35763e-05
0.000111926
0.000198263
0.000171366
4.39573e-05
-3.27168e-05
8.07922e-08
-5.79371e-05
0.000225333
0.000376762
-0.000177553
-0.000183743
-7.4381e-05
-0.000144026
-0.000160355
7.28876e-06
0.000169623
-7.63815e-05
-7.11926e-05
3.14842e-05
0.000175343
-0.000108423
0.000158557
3.03825e-05
-0.000132126
3.86334e-05
0.000155087
4.77429e-05
-0.000349378
5.9732e-05
2.47427e-05
1.03053e-05
-4.99256e-05
-0.000127535
3.16487e-06
0.000134674
-0.000139897
-0.000188867
0.000126001
-2.076e-05
6.33765e-07
-0.000127525
7.93405e-05
0.000122207
-0.000125624
0.000295838
7.74896e-05
1.5348e-05
0.000202663
8.42467e-05
4.1686e-05
-0.000108538
-2.80776e-05
1.66446e-05
0.000171693
-0.000184285
6.88339e-05
-0.000125036
-1.37619e-05
-0.000135664
-0.00021055
-9.84175e-07
-4.90113e-05
-8.09389e-05
0.000102248
-0.000149229
8.1096e-05
2.69507e-05
-1.43864e-05
1.54221e-05
-1.58669e-05
3.47089e-05
-9.62509e-05
-9.75208e-05
2.43401e-05
0.000107058
0.000366356
7.28783e-06
-0.000155936
-9.53299e-05
0.000137768
9.83663e-06
-0.000161891
-0.000121322
2.23983e-07
1.79393e-05
1.81142e-07
1.25406e-05
4.89864e-05
-7.60626e-05
-0.000142158
-1.60061e-05
2.64198e-05
5.4174e-05
-6.68779e-05
8.26063e-05
-0.000147852
4.2459e-05
9.39311e-05
0.000160421
-0.000142331
2.78748e-05
-0.000137008
0.000146418
-1.77759e-05
-2.83488e-05
-2.44295e-05
-5.91155e-05
-0.000162352
0.000134859
-2.78486e-05
-0.000227695
-4.94984e-05
0.00012591
0.000324284
0.000204658
2.9244e-05
9.74155e-05
0.000104715
8.94757e-05
8.96059e-05
-0.000213552
-0.00025651
-3.85926e-05
0.000223136
0.000140105
1.44442e-05
-7.57286e-05
-0.000252547
0.000166431
0.000188978
0.00018488
1.52683e-05
6.85167e-05
8.02176e-05
1.05391e-05
8.4576e-05
0.000125926
-0.000144178
7.79595e-05
4.98376e-05
1.37542e-05
6.75831e-05
-0.000157814
3.69855e-05
0.000105139
-3.66166e-05
1.87564e-05
-1.92632e-05
0.000175886
-0.000171642
6.33071e-05
0.000266137
8.09972e-05
0.000188445
-0.000159405
4.4575e-05
0.000141813
0.000220663
5.41577e-05
-0.000104488
1.30846e-05
-0.000107892
-0.000138128
-6.16148e-05
-4.19207e-05
1.66791e-05
-2.06961e-05
0.000147439
0.000134984
5.65697e-06
-1.72269e-05
-0.000260043
5.1317e-05
0.000213686
0.000211855
5.88387e-05
1.9361e-05
-0.000100818
0.000124229
2.53927e-05
0.000183895
0.000154739
-3.03441e-05
0.000214529
-7.57559e-05
1.44459e-05
-0.000211845
-4.60355e-05
-3.66671e-05
-3.94426e-05
7.06724e-05
-9.3922e-05
-0.000102125
0.000294251
0.00014678
5.82021e-05
-5.26713e-05
0.000260632
0.000228303
6.81707e-05
2.14293e-05
-5.14743e-05
-7.31988e-05
-0.000244074
0.000180784
1.65299e-05
-0.00023791
-3.37651e-05
-0.000282378
-4.30308e-05
0.000120076
3.15587e-05
-9.46617e-05
0.000122842
3.72733e-05
8.1104e-05
0.000154505
7.49365e-06
1.44338e-05
-0.000179203
-5.82368e-05
-3.11702e-06
0.000250397
4.39943e-05
5.39838e-05
0.000134885
-2.47305e-05
-5.70412e-05
0.000107274
5.41485e-05
-1.56619e-05
-3.7775e-05
4.11437e-05
9.8215e-06
7.3757e-05
2.32342e-05
-4.11207e-05
5.46291e-06
-0.000119231
0.000155595
-0.000111583
2.56622e-05
5.15213e-05
5.13124e-05
-7.0722e-05
-7.94263e-05
0.00015511
-5.84781e-05
-8.78896e-05
-0.000102153
-2.32382e-05
-0.000175545
7.71286e-06
-2.54549e-05
-0.000178069
-0.000125553
0.000205199
0.000212286
-2.68652e-06
-2.41214e-05
-2.50028e-05
0.000107021
-6.86591e-05
4.08769e-05
0.000342544
-0.000101447
8.74012e-05
6.67726e-05
-7.2733e-05
-2.20812e-05
0.00012468
-0.00020303
-0.000161295
-1.47864e-05
-1.84004e-05
9.88247e-05
2.16647e-05
-0.000227526
-3.40539e-05
-0.000100783
0.000131305
-3.67088e-05
-2.64681e-05
0.00013913
0.000150351
-0.000191979
-3.61903e-05
0.000234119
2.5388e-05
1.14436e-05
-6.48769e-05
-0.000308109
-7.12369e-05
4.99522e-05
-7.2293e-05
-7.38136e-05
8.52707e-05
0.000128286
-7.60136e-05
2.15351e-05
0.000213476
-1.71866e-05
-7.74207e-05
-0.000178745
0.000104772
-0.000162503
0.000144425
-0.000270042
-9.49894e-05
0.000192226
0.000149382
-0.000159597
0.000191376
3.99507e-05
-0.000187489
-0.000114778
0.000120663
3.66091e-05
-7.56746e-06
0.000226897
6.19669e-05
9.53634e-05
-7.85943e-06
-0.00025532
-9.48636e-05
-0.00015711
0.0001786
5.97755e-05
-0.000133062
5.76955e-05
-3.21069e-05
-1.61056e-05
2.21668e-05
-5.42984e-05
-6.23438e-05
6.68637e-05
-0.000122858
-4.09852e-05
-1.03903e-05
0.000198808
0.000186819
0.000159535
-4.54272e-05
0.000252516
-0.000259491
-8.88826e-05
8.55559e-05
4.16505e-05
1.27645e-05
-5.03222e-05
0.000159235
-0.000163725
-9.38042e-05
-0.000122232
7.90892e-05
1.54963e-05
4.19924e-05
-9.16675e-05
-3.15096e-05
-5.35657e-05
-6.63879e-05
0.000184934
9.34084e-05
0.000166737
7.55875e-05
-0.000110033
-2.5301e-05
-5.7213e-05
6.56421e-05
0.000189398
6.61291e-05
-1.49768e-06
-2.87795e-05
-0.000148094
-0.000106272
0.000126552
-0.000154067
2.73401e-05
0.000204304
-9.08365e-06
-1.08026e-05
2.98858e-05
0.000174531
0.000224557
-7.88337e-05
1.40878e-05
3.88721e-05
-5.49895e-05
3.47538e-05
-1.87049e-05
1.7393e-05
9.94583e-06
-6.26486e-05
-6.43258e-05
-0.000144571
-8.35177e-05
-0.000127039
7.55774e-05
4.24776e-06
0.000186389
0.000143269
-0.000140258
-0.00018174
5.58319e-05
8.40172e-05
-0.000154036
-0.000107192
-0.000241346
0.000125181
0.000266883
5.0875e-05
3.53903e-08
-7.13604e-05
-0.000189627
-0.000199365
-0.000211307
0.000189455
0.000138266
2.27373e-05
-2.52455e-05
-1.08592e-06
0.000138295
1.2035e-06
-9.34169e-05
-6.3175e-05
3.64761e-05
0.000139143
4.54159e-05
0.000129564
-8.47832e-05
-0.000151279
-6.9113e-05
-0.00022545
-0.000161758
1.17817e-05
0.00016408
-0.000104272
-0.000163967
-0.000209966
8.25351e-05
5.52798e-06
0.000125659
-2.34623e-05
-0.000100473
0.000129861
1.2985e-05
9.70049e-05
-0.000143422
-3.79763e-05
0.000104359
8.37501e-05
4.33289e-05
9.91824e-06
4.63265e-05
-9.66196e-05
-4.15104e-05
0.000116337
0.000118176
0.000199045
9.78027e-05
-8.44523e-05
-0.000118984
-0.000280124
2.74548e-05
-0.000119002
1.2473e-05
5.40332e-05
0.000285298
-0.000151142
0.000170171
0.000270778
2.14148e-05
-9.48713e-05
9.43441e-06
-8.11797e-05
-9.60713e-05
-1.23689e-05
-0.000102946
0.000159659
2.30505e-05
0.000180942
-6.18615e-05
-9.22831e-05
-0.000227816
1.69256e-05
1.51834e-05
-0.000240993
-0.00010223
6.63763e-05
-3.62672e-05
5.08036e-05
-0.00018314
5.20386e-05
0.000306545
-1.6663e-05
0.000290772
-0.000139547
-0.000122603
-5.22039e-05
9.43211e-05
-6.36574e-05
9.61273e-05
0.000108074
0.000106684
-8.72184e-06
6.16827e-05
-1.83808e-06
-0.000197207
-5.57746e-06
-7.19313e-05
9.06305e-05
-0.000162601
7.77311e-05
0.000159715
-5.4341e-05
-0.000147501
-7.74158e-05
0.000153081
-2.73368e-05
-0.000229796
9.37126e-05
6.45744e-05
0.000178572
4.31607e-05
-0.000134715
-9.56e-05
-3.41509e-05
-1.01633e-05
-9.66899e-05
-0.0001657
-8.84301e-05
-4.28744e-05
-3.30034e-05
-0.000116963
5.24358e-05
-4.5164e-05
0.000208052
-6.82124e-06
-5.17782e-05
-0.000141354
0.000140241
-0.00015603
7.51864e-05
2.0225e-05
-7.16581e-05
5.6131e-05
0.000159211
-5.65287e-05
0.000251903
3.1986e-05
6.31835e-05
1.96683e-05
7.66544e-05
-9.53657e-05
-0.000255107
-9.88512e-05
9.91969e-05
-0.000130079
-0.000101378
-0.000162022
-5.0917e-05
-0.00022041
-6.9777e-06
-1.31319e-05
4.90902e-05
0.000101945
3.05644e-05
-0.000107107
0.000272933
0.000160349
-0.00021392
-3.61141e-05
2.18023e-06
5.93356e-05
9.33332e-05
0.000201187
6.50976e-05
-0.000241656
3.37403e-05
-0.000111168
-0.000133399
-3.89223e-06
4.94759e-05
-1.42427e-05
-0.000141924
-2.21017e-05
-7.78289e-05
1.2705e-05
7.37561e-05
-0.00012614
-0.000245906
0.000168616
5.4545e-05
1.28772e-05
1.09915e-05
3.6797e-05
8.81028e-05
-0.000152634
-5.43137e-05
4.27315e-05
-0.000107605
-1.42009e-05
0.000178557
4.22308e-06
-9.65695e-05
-0.000131108
5.83474e-05
-0.000214413
3.5494e-05
6.97779e-05
0.000103052
0.0002422
0.000144459
-2.04411e-05
5.96895e-05
-9.07667e-06
-0.00022765
-0.000166512
-2.66877e-05
5.25503e-05
5.57698e-05
-5.57293e-05
0.000146147
-0.000149702
-2.76022e-05
-9.51376e-05
2.09429e-05
2.88544e-05
-0.000140231
0.000130283
-9.81154e-05
2.52756e-05
-0.000192471
-3.23497e-05
-5.4754e-05
4.9862e-05
-0.000146011
-9.19402e-05
0.000151365
0.000287537
-6.65011e-05
-0.000135358
-1.61644e-05
4.94288e-06
-3.53341e-05
0.000167312
0.000107068
-0.000188029
-7.00097e-05
4.27975e-05
3.85987e-06
-0.000196995
7.80226e-05
0.000116439
-9.99201e-05
7.39872e-05
1.07222e-05
-0.000180299
-0.00010922
0.000205954
0.00018879
2.01734e-05
-2.96512e-05
-0.000349824
4.11016e-06
0.000123925
-3.55253e-05
-0.000108582
3.19793e-05
-7.95005e-05
-4.5548e-05
2.00196e-05
0.000106109
0.000112733
7.80176e-05
5.90989e-05
-4.47881e-05
-0.000163544
-4.45182e-05
9.46992e-05
4.53638e-05
0.0001467
0.000371168
-0.000106882
2.88242e-05
-8.67571e-05
-0.000134427
-0.000146206
-2.19482e-05
0.000153725
1.33294e-05
0.000187603
-1.91196e-05
0.000195527
-2.32406e-05
-6.36204e-05
-7.57717e-05
4.84321e-05
-6.37739e-05
-0.000138915
-0.000245248
6.2294e-05
0.000108126
-0.000270933
-4.42121e-05
-7.413e-05
3.50927e-05
5.13988e-05
-0.000142266
-1.2906e-05
-5.8761e-05
2.4053e-05
6.15682e-05
0.000119561
-0.000201185
2.88429e-05
-1.74521e-05
-5.6818e-05
-7.92787e-05
-0.000198157
-4.56489e-05
6.34014e-05
6.5427e-05
0.000170966
-3.87798e-05
0.000198385
7.83801e-06
-0.000199486
0.000169319
-0.00027032
-0.000135009
0.000148307
-5.11816e-05
-0.000103465
5.0813e-05
0.000114097
0.000146248
1.48786e-05
-6.55856e-05
1.61037e-05
8.98603e-05
0.000173026
-4.4023e-05
-0.000187173
-0.000154748
2.34344e-05
0.000238254
-6.58906e-05
-0.000192058
-5.15084e-05
-0.000182623
9.28571e-05
0.000228695
-0.000152137
-0.000268211
-0.000114049
-2.92852e-05
0.000134669
0.000265731
0.000349332
0.000130095
-0.000157078
0.000147509
3.92405e-05
-0.000146322
9.53057e-06
1.18128e-05
-0.000154641
-7.61307e-05
7.32393e-05
2.18628e-05
-0.000121679
-0.000157697
-0.000187149
-7.34697e-06
5.6278e-05
0.000146168
-4.77147e-05
-9.46944e-05
4.11803e-05
9.87967e-05
5.81148e-05
-2.84975e-05
-1.39514e-05
-0.000155317
0.000225238
0.000138013
-0.000113474
1.13243e-05
-7.76451e-05
0.000159088
0.000144342
4.70367e-05
0.00014683
-0.00012299
-0.000286219
2.56046e-05
-0.000100085
7.21153e-05
0.000331845
-5.45281e-05
-0.000194342
0.000178272
0.000109335
-7.47095e-05
-7.51996e-05
-5.26871e-05
0.000218443
5.5511e-05
0.000136261
-2.37833e-05
-9.11856e-05
0.000254265
-6.30097e-05
-0.000181339
6.98079e-05
-0.000144719
-2.1921e-06
-0.000170406
-9.8912e-05
-3.77491e-05
-7.14975e-05
1.54659e-05
-9.91568e-05
0.000152597
7.13272e-05
0.000103443
-1.65147e-06
0.000203284
8.91852e-05
-7.76546e-05
2.95434e-05
0.000140798
9.40467e-05
0.000107149
-0.000173961
-9.79868e-07
0.00011672
-0.000164489
-4.06592e-05
2.91725e-05
-5.2253e-05
3.20537e-05
-0.000166177
-2.50139e-05
-0.00010556
-0.000233497
-2.71286e-05
4.52002e-05
7.12281e-05
0.000105443
0.000238191
0.000133502
-3.44057e-05
-4.85121e-05
2.10225e-05
-0.000166436
-5.40153e-05
0.00028137
-0.000235074
-0.000121374
1.63075e-06
-1.12574e-06
-0.00022793
-5.11759e-05
-0.000113035
-7.65058e-06
6.2303e-05
-4.97419e-05
-0.000128299
-0.000116971
5.06581e-05
-9.57947e-05
-0.000109334
0.000271546
-2.16491e-05
-1.11246e-05
8.14729e-05
-1.66273e-05
-0.00027521
9.76301e-05
-2.6652e-05
-2.61809e-05
2.69443e-05
-0.000103473
0.000341775
2.09435e-05
-3.239e-05
-6.88352e-05
0.000108972
-1.51352e-05
4.49474e-05
-4.91161e-05
-3.03988e-05
5.065e-06
-0.000103205
-9.40472e-05
4.73502e-05
-1.95425e-05
-0.000118535
7.95831e-05
3.03119e-05
1.52102e-05
-7.79658e-05
5.48805e-06
0.000134981
-2.41967e-05
-6.74864e-05
0.000158697
-3.29083e-06
-2.18321e-05
0.000222291
7.16927e-05
-5.90613e-05
0.00019114
0.00014952
3.77403e-05
-7.86571e-05
0.000147398
0.000140906
8.56693e-05
-5.99241e-05
-0.000271963
0.000194647
0.000113124
-7.95758e-05
-0.000155275
-0.000133276
-6.7699e-06
-0.00012773
-7.08892e-05
9.87689e-05
0.000273996
2.33558e-05
-8.14893e-05
2.60363e-06
-2.95102e-05
-0.000157964
2.87581e-05
-0.000106793
9.63409e-05
-0.000157389
-0.000107193
2.24134e-05
0.000248752
8.43446e-05
3.32937e-05
-6.53184e-05
5.7121e-05
0.000189449
-4.57879e-05
4.65678e-05
6.57236e-05
7.99389e-06
-3.17083e-05
-0.000107669
-0.00011021
-6.65137e-05
-2.53152e-05
-1.70389e-05
0.000120809
0.000119024
1.06858e-06
-1.01215e-05
0.000231284
4.4937e-05
-7.24761e-05
-5.49853e-05
3.46829e-05
-1.29414e-05
-6.77722e-05
-0.000237355
0.000213614
4.66988e-05
-0.000118826
0.000176539
3.39499e-05
-3.3194e-05
-0.000230012
-7.07057e-05
-3.6658e-06
-1.44102e-05
-6.01698e-05
-0.000159084
0.000155203
-0.000161825
4.14671e-05
0.000228379
-7.25721e-05
-1.28642e-05
-1.14572e-05
-6.04531e-05
-0.000145411
-3.98073e-05
-8.58214e-06
7.09003e-05
-8.22734e-05
5.0446e-05
-4.89778e-05
3.79253e-05
0.000130516
1.41771e-05
6.0085e-05
-1.29745e-06
-0.000307663
-0.000155046
-2.20264e-05
9.97634e-05
-5.21035e-05
1.28038e-05
-0.000246408
-9.09067e-05
3.00785e-05
0.000161331
8.04923e-05
0.000148968
-7.28162e-05
-0.000207317
-9.02709e-05
-0.000208502
-6.97677e-06
6.62798e-05
0.000265066
-6.92341e-05
-1.35651e-05
0.000157919
-0.000118397
8.6455e-05
0.000100486
9.50682e-06
-0.000113758
-1.70931e-05
-4.9015e-05
8.35478e-06
-7.73768e-05
0.000107088
0.000158348
-3.75557e-05
3.04889e-05
3.3654e-05
-8.88587e-06
0.000301133
-8.08008e-05
-3.9649e-05
0.00016407
-2.29538e-05
-0.000181555
0.000114664
-3.98562e-05
3.30666e-06
-0.000119984
-2.65428e-05
0.000195533
0.000190823
0.000115672
4.01605e-05
-8.1911e-06
-0.000166779
-6.4898e-06
0.000145401
-4.01681e-05
-1.96665e-05
3.78781e-06
-3.18533e-05
1.38633e-05
2.03401e-06
-0.000146022
8.23194e-05
3.14342e-05
-7.70661e-05
-0.000245314
0.000114333
0.000188926
-5.71462e-05
0.000102049
0.000264485
-6.59025e-05
-4.72026e-05
-4.94251e-05
-6.4777e-05
-0.000130378
-4.38514e-05
4.68156e-05
-5.59364e-06
0.000221527
-4.81961e-05
0.000164698
7.91221e-05
0.000117035
-8.67766e-05
-0.000233815
-1.46721e-05
8.92626e-05
-3.82739e-05
-6.3082e-05
-5.50291e-05
-8.49715e-05
0.00029107
0.000166672
-0.000170241
2.47553e-05
0.00017304
4.93121e-05
0.000104451
0.000210147
8.09083e-05
8.07e-05
-3.04012e-05
-2.53017e-06
-0.000114176
9.7577e-05
-5.8034e-05
-1.1807e-05
0.000142364
-7.01437e-06
-0.000186589
-0.000109897
0.000104449
6.43447e-05
-2.26721e-05
-7.54592e-06
-1.86301e-05
-1.71248e-05
-6.81503e-05
-3.07159e-05
6.5166e-05
2.2794e-05
9.19536e-05
2.44603e-05
-4.73494e-05
0.000151443
-9.39884e-05
0.000141375
0.000166142
3.56962e-05
-0.000194375
-8.06386e-06
7.46383e-05
-3.01739e-05
-1.64355e-06
-0.000136268
1.42009e-05
4.69952e-05
6.94348e-06
-0.000138031
0.000113572
7.10679e-05
0.00011362
5.42079e-05
-0.000314165
-0.000167959
-6.41171e-05
-1.67359e-05
0.000151964
-4.39109e-05
-1.36902e-05
-3.26836e-05
-0.000104444
-1.69623e-05
-6.88833e-05
9.35411e-05
0.000101322
-2.98792e-05
-2.69788e-05
2.54367e-06
2.76943e-05
-2.92558e-05
0.000119386
-2.32004e-05
-2.69662e-05
-9.1851e-05
0.00017591
0.000108146
-0.000131494
-0.000112082
-9.09742e-05
4.18536e-06
1.52449e-05
6.54523e-05
0.000116663
7.872e-06
-0.00010898
-9.04179e-05
3.26785e-05
0.000180456
-9.35167e-05
-9.92022e-05
-2.69422e-05
7.15237e-05
4.43165e-05
7.81369e-05
-0.000118308
3.85279e-05
-6.90215e-06
-9.50221e-05
1.07677e-05
-6.06989e-06
-0.000203794
-0.000133204
0.000125839
5.48615e-05
-3.46741e-05
8.7232e-05
-6.71544e-05
0.000160965
6.18343e-05
-9.12643e-05
-0.000191776
3.2126e-05
0.000224089
9.50486e-05
-4.74829e-05
-7.22769e-05
0.000163256
-1.61198e-05
0.000151637
-4.61556e-05
-3.22759e-05
-0.000248875
7.74559e-05
0.00013677
-8.2069e-05
0.000110066
-2.38885e-05
-8.37178e-05
-0.000151775
1.54123e-05
-4.73432e-05
8.00472e-05
-0.000102742
-0.000137486
3.89572e-05
-0.000116259
-3.01423e-05
-0.000253362
-6.4026e-05
-9.45153e-05
0.000204448
7.93346e-05
0.000125921
0.000147771
-1.15121e-05
-1.1902e-05
3.90926e-05
-5.41672e-05
-1.33466e-05
1.65144e-05
0.000136274
-5.52906e-05
2.42339e-05
-0.000138048
-7.50647e-05
4.58143e-05
0.000209383
5.04265e-06
-0.000213401
-0.00011617
-2.43064e-05
-2.21918e-05
-1.67559e-05
-6.98642e-05
0.000136895
0.000248363
0.000347202
1.07267e-05
5.26285e-05
5.62527e-05
-0.000104062
-6.53901e-05
-4.29651e-05
0.00011274
0.000125047
-0.000163849
-0.000140403
-2.88046e-06
-0.000207138
-4.35961e-05
0.000128655
0.000159534
0.000108227
8.26919e-05
0.000135472
-3.0917e-05
6.27679e-05
-0.000172909
2.48698e-05
-5.03159e-06
-0.000187343
0.000188133
-8.22113e-05
-0.000148368
-4.32963e-05
4.78994e-05
-7.88937e-05
7.39911e-05
0.0001405
-5.23985e-06
0.000167863
6.61029e-05
6.9249e-05
5.86358e-05
-0.000122299
-6.2465e-05
-0.000125434
-0.000230353
7.07112e-05
0.000120824
0.000231861
0.000131328
-2.18239e-05
4.3039e-05
-1.84856e-06
1.81565e-05
-0.000185814
1.47615e-05
-3.17446e-05
-7.83829e-05
-4.34214e-05
4.03207e-05
-0.000102465
-3.05474e-06
2.33646e-06
-5.10218e-05
-3.75507e-05
0.000116909
-0.000122661
4.1045e-05
7.69465e-05
0.000186197
1.81764e-05
-4.68856e-05
-7.15211e-05
-0.000193177
-0.000149236
4.13459e-05
0.000139034
-4.35244e-05
1.19915e-05
-0.000120693
-0.000209089
-4.41619e-05
-0.00014616
0.000236916
2.65588e-05
9.83377e-05
0.000152459
-0.000247316
1.49457e-05
5.07163e-05
-1.8518e-05
-0.000118775
-0.000182052
-6.12849e-05
8.45146e-05
-0.000109462
7.05248e-05
-7.23575e-05
5.31476e-05
0.000144235
-0.000245719
-0.000150403
2.1628e-05
-6.81818e-05
-0.00020793
0.000109605
-8.85261e-05
7.97055e-05
0.00028339
0.000204763
9.0631e-05
-0.000140197
-5.85195e-05
0.000124662
0.000141707
-1.6361e-06
-0.000316473
-6.87549e-07
-1.7517e-05
6.10729e-05
0.000134194
-7.54828e-05
1.55342e-05
0.000256716
0.000142833
6.86817e-05
-3.31833e-05
-6.10541e-05
1.0567e-05
-1.30094e-05
7.33678e-05
-0.000182255
-0.000148817
-8.73479e-05
8.83789e-05
1.11416e-05
-6.44671e-05
-0.000202434
0.000157274
0.000228798
-0.00010197
-0.000157966
-9.30226e-05
9.96788e-05
0.000203216
7.63418e-05
-0.000101954
1.27881e-05
-0.000190953
-6.33266e-05
9.71544e-05
-0.000129608
0.000124223
0.000199691
-2.28563e-05
3.24192e-05
-0.000360264
7.46555e-05
-3.76082e-05
1.66168e-05
8.49215e-06
-0.000123004
-3.49069e-05
-7.59885e-05
0.000226198
-1.22666e-05
9.99714e-05
-5.5996e-05
-4.67701e-05
3.51185e-05
0.000163131
-0.000143992
7.06697e-05
-7.25266e-05
-0.000121815
6.2827e-05
0.000109789
6.57069e-05
-7.02901e-05
-3.25323e-05
0.000232527
8.43757e-05
4.89862e-05
1.66695e-05
-8.88576e-05
-6.19411e-06
-2.78706e-05
1.7593e-05
-0.000153231
7.81373e-05
-6.59504e-05
-0.000123161
5.14113e-06
2.1548e-05
-0.0003518
-3.76344e-05
7.15565e-05
8.10821e-06
0.000153978
8.05384e-06
0.000137822
-0.000117045
0.000280605
0.000116489
-6.11866e-05
7.0904e-05
0.000133943
3.37115e-06
-0.000161973
-4.62988e-05
3.68194e-05
7.28646e-05
2.18676e-05
-0.000256554
6.81545e-05
8.46968e-05
-4.99133e-05
5.68724e-06
-3.85598e-05
-0.00017962
-0.000231311
-3.22595e-05
0.000187138
0.000114162
8.53962e-05
0.000171933
9.6374e-05
7.27882e-05
2.22877e-05
0.000119666
0.00012813
0.00014981
0.000208152
-4.80015e-06
-7.16597e-05
-0.000132866
0.000114464
0.000129741
-9.49635e-06
3.54199e-05
0.000121008
4.23471e-05
-4.14834e-05
0.000125101
8.64186e-05
0.000243836
-0.000100199
-0.000122344
-9.80331e-05
-8.60878e-05
-0.000331322
-0.000134395
-0.000198913
0.000222183
-8.86713e-05
1.34236e-05
-6.912e-05
-0.000106745
7.29919e-05
4.47723e-05
-8.44337e-06
-0.000341377
-9.84767e-05
0.000364452
0.000161008
-3.34694e-06
-2.0758e-05
-6.22179e-05
-0.000169168
-0.000135809
-0.000131186
6.57777e-05
4.16894e-05
0.000110875
6.35932e-05
1.15465e-05
9.29576e-06
-0.00014828
0.000223956
4.7802e-05
-7.78369e-05
-0.000138778
-5.38568e-05
-9.97283e-05
0.00012594
8.0704e-05
-4.49409e-05
3.74926e-05
7.111e-06
-5.72294e-05
-0.000127655
-1.98262e-05
-2.05793e-05
5.09236e-06
2.40281e-05
9.78035e-05
-1.69675e-05
-0.000146045
2.89073e-05
3.15958e-05
-0.000254987
-0.000296916
0.000153938
0.000207778
0.000134694
5.4063e-05
3.00161e-05
1.5174e-05
0.00010983
-0.000127285
4.77325e-05
-0.00013309
-2.04728e-05
0.000229044
-6.3882e-05
-8.40881e-05