# vtk DataFile Version 1.0
Net Charge Density
ASCII
DATASET STRUCTURED_POINTS
DIMENSIONS 256 128 1
ORIGIN 0 0 0
SPACING 0.15625 0.15625 1
POINT_DATA 32768
SCALARS rhonet float
LOOKUP_TABLE default
3.56933e-05
-0.000111924
0.000292194
3.40689e-05
4.80267e-05
-0.000183901
-0.000157922
-0.000119085
8.47753e-05
0.000251214
0.00034288
0.000257254
-6.5017e-05
5.31675e-05
-8.29845e-05
-6.08133e-05
0.000120315
3.69565e-05
-0.000151114
0.000189525
-0.000350567
0.000187213
0.000409413
0.000197269
0.00010576
0.000302118
6.10143e-05
0.000149376
0.000208445
0.000410224
-8.15645e-05
-7.33077e-05
-9.69272e-05
0.000339333
0.000193957
8.33804e-05
3.17515e-05
2.54292e-05
0.000187195
-4.21508e-05
1.4125e-05
-9.63878e-05
0.000168228
0.000236168
1.13482e-05
-0.000121192
0.000353546
0.000319509
0.00024425
0.000336866
3.02597e-05
-1.19384e-05
0.000135355
0.000178785
7.82409e-05
-0.000124885
0.000545838
0.000202735
-3.36608e-05
-0.00016242
0.000300877
-3.05336e-05
0.000185637
1.69489e-05
1.07931e-05
0.000207217
0.000128211
7.46888e-05
-9.634e-05
-0.00037066
0.000139229
0.00010276
1.34953e-05
6.25871e-05
6.72298e-05
7.44433e-05
0.000440249
0.000222508
-6.93725e-05
-6.97095e-06
4.92588e-05
0.000137455
0.000153665
-0.000425109
0.000206354
0.000501147
0.000454515
0.000310988
5.08947e-05
-0.000141548
0.000199313
0.00011678
7.88306e-05
4.59841e-07
8.10226e-05
0.000224601
-5.97023e-05
-2.85427e-05
-4.17411e-05
-6.0483e-05
-0.000139318
7.41597e-05
0.000141267
0.000106581
0.000399191
0.000124161
0.000257733
0.000132095
4.97353e-05
0.000109706
0.000103943
4.90758e-05
0.0001285
-7.74555e-05
-6.18525e-05
1.85296e-05
7.26497e-05
1.62834e-05
-0.000213627
0.000143591
7.83225e-05
0.000221577
-0.000264158
0.000190311
0.000244364
-0.000233365
-0.000155948
0.000165025
0.000191109
0.000149031
4.57392e-05
-4.69334e-05
-0.00010314
0.000109321
0.000204183
6.06326e-05
0.000128148
0.000230656
1.31107e-06
0.000139281
-0.000219223
1.65112e-06
0.00014943
-0.000144465
0.000302995
0.000359483
-0.000163515
0.000100787
-0.000123427
0.00023952
8.42637e-06
0.000219286
8.67442e-05
0.000149095
0.000106101
-1.79091e-05
0.000148629
0.000246484
-5.90127e-05
-0.000105773
0.000159678
0.00011272
0.000172422
0.000100926
9.07107e-05
-9.80326e-05
0.000599374
-2.23177e-05
7.87931e-05
0.000131558
0.00016225
0.000135556
1.87979e-05
-4.74106e-05
0.000354931
0.000239089
0.000327437
-4.33389e-05
0.000135881
-0.000160489
0.000142088
0.000164038
1.05901e-05
7.48258e-05
7.39342e-06
7.86035e-05
0.000153679
-0.000294242
-0.000273138
-0.000165496
-0.000321886
3.18716e-05
0.000234161
0.00015157
0.000168017
0.000103449
6.72051e-05
3.66727e-05
-6.39015e-06
4.0322e-05
5.84184e-05
0.000125801
0.000213314
-0.00019912
0.000169762
-8.58842e-06
0.000140677
0.000224039
0.000135792
-0.000135003
0.000319654
0.000220145
0.000196101
7.43589e-05
0.000218128
0.000154052
0.000301293
2.98803e-06
6.26035e-06
-0.000458871
-0.000137535
0.000193353
-1.34994e-05
3.18501e-05
4.99145e-05
0.000449146
0.000114372
9.96109e-05
1.42429e-05
5.66074e-05
0.000113339
-3.39502e-06
-8.79439e-05
-1.70493e-05
4.81269e-05
-9.98253e-05
6.48536e-05
0.000212275
0.00030758
0.000175238
0.000138163
-0.000114343
-7.23962e-05
0.000276498
0.000164982
0.000338641
0.000292174
0.000126701
0.000211236
-8.05835e-05
-0.000331215
-9.23523e-06
2.4718e-05
0.000108748
-0.000279581
-0.000132228
-0.00010901
-2.0508e-05
6.42795e-05
4.0575e-05
-0.000111239
-0.000173055
-8.95261e-05
0.000133027
5.38991e-05
-9.15799e-05
1.50683e-05
4.74958e-05
-9.16726e-05
-0.000221893
-0.000113233
8.31956e-05
0.00020585
-2.20806e-05
-0.000106028
-9.24177e-05
-7.10272e-05
2.41695e-05
4.51439e-05
-9.85919e-05
-0.000223817
-7.01636e-05
5.37488e-05
-0.00028126
-0.000235671
-7.1487e-05
-0.000184309
-3.32226e-05
0.00015367
0.000113174
-1.62901e-05
-6.72239e-05
3.75767e-05
-0.000149855
7.75341e-05
-0.000200046
-4.85287e-05
-0.000149919
-7.81417e-05
-0.000148805
-5.19363e-05
-3.0678e-05
-0.000103568
-0.000164927
0.000262427
7.57084e-05
-2.21757e-05
5.49381e-05
0.000104942
9.50927e-05
-0.000172766
-0.000286251
0.000336915
-7.72761e-05
-0.00029781
-0.000278117
-0.000150279
-6.28205e-05
6.98331e-05
-7.83852e-05
-0.000128589
-3.6438e-07
3.66285e-05
0.000141903
2.92347e-05
-1.70432e-07
2.95229e-07
2.6708e-05
-8.93042e-05
-8.08036e-05
-6.65857e-05
3.71095e-05
-8.18819e-06
-8.55298e-05
9.69752e-05
-0.000151951
-6.02672e-05
-1.96941e-05
1.53796e-05
-0.000278288
-8.4053e-05
7.7791e-05
5.40873e-05
7.00909e-05
-0.000286644
-8.3087e-05
-0.000123079
0.000127199
9.93982e-05
6.22561e-05
0.00018508
0.000139706
-1.7953e-05
2.42731e-05
-0.000181895
-5.09953e-05
-0.00014281
0.000104996
0.000126031
-1.84285e-07
9.63358e-05
9.55886e-07
-4.60399e-05
-0.000140043
-8.1036e-05
-4.55396e-05
-6.29089e-05
-0.00015163
-0.000169571
-7.36798e-05
0.00010476
6.98032e-05
0.00011682
0.000143237
-0.000112405
-0.000178987
3.05893e-05
7.65456e-05
-0.000128878
8.94256e-06
0.000204779
-0.000274593
-0.000155847
-0.000119096
4.31598e-06
0.000178205
9.76353e-05
-9.70979e-05
-0.00014029
-0.000116329
0.000259349
0.000189783
-1.86187e-05
-0.000261245
-0.000186742
1.97419e-05
-8.8046e-05
-0.000191333
-8.10288e-05
-0.000280395
-0.000147456
3.60075e-05
5.55078e-05
7.6652e-05
-0.000168004
3.31396e-05
-0.000118018
-0.00010511
-0.00013346
-0.000117708
-8.6097e-05
-4.90128e-05
-0.000110857
0.000105072
5.13016e-05
-0.00012538
-2.78186e-06
0.00012513
3.66492e-05
-7.45279e-05
-9.26874e-05
-0.000274414
0.00010727
-0.000118898
1.36411e-05
0.000120236
6.30068e-05
-7.63685e-06
-3.77706e-05
-4.70764e-05
1.23344e-05
-0.000281315
-0.000152907
-0.000242617
-6.2652e-05
-1.51107e-06
0.00029507
-2.89016e-05
-9.01252e-05
-0.000280512
-0.000129487
-5.20931e-05
9.36129e-05
-0.000197435
-5.42407e-05
1.38978e-05
-0.000162055
3.95261e-05
0.000139373
7.70045e-05
-1.25415e-05
-8.84791e-05
9.06179e-05
-3.93158e-06
9.27694e-05
-0.000170623
-0.000258182
-0.000172327
-0.000248026
-0.00014867
-7.73312e-05
0.000233668
-0.000128194
-4.97339e-05
-0.000151651
6.5313e-05
-7.82846e-06
-0.000111255
5.54658e-05
-5.81e-05
-7.55143e-05
-7.22054e-05
7.79352e-05
-0.000199666
7.66575e-05
-0.000154005
7.67319e-05
-0.000122249
-0.000139106
-8.65855e-05
4.2221e-05
0.00010671
-0.000147014
-5.45655e-05
-4.60399e-06
8.63307e-05
-0.00015213
5.50153e-05
0.000112945
5.7423e-06
-0.000292318
0.000129193
3.23391e-05
-8.1406e-05
-9.71528e-05
8.60019e-05
0.000192178
-0.000191969
-0.000303382
0.000113038
-8.06095e-05
-0.000196479
-0.000138299
-0.000150078
0.000136163
-9.93783e-05
0.000138051
5.20388e-06
-4.92574e-05
-7.57561e-05
-0.000286744
-0.000107129
-8.37594e-05
-2.58825e-05
-5.40437e-05
-2.02403e-05
-0.000100461
-0.000140998
-2.45832e-05
-1.99424e-05
0.000167908
-5.46258e-05
-6.32001e-05
0.000126797
0.000201097
0.000100724
-0.000132643
3.02962e-05
0.000197423
0.000182507
5.28418e-05
0.000147616
0.000352057
0.000140704
-0.000175288
-0.000251496
1.34555e-05
3.85859e-05
8.20643e-05
0.000156877
-0.000128215
-1.07827e-05
2.92615e-05
3.66997e-05
-0.000184046
-0.000132255
9.76368e-05
0.000164432
0.000243534
-8.25447e-05
2.79436e-05
-0.000106583
-0.000103021
-9.9498e-05
-2.38915e-05
-0.000227392
3.58552e-05
0.000104915
0.000124086
-0.000129505
-9.11219e-05
-6.02218e-05
3.30943e-05
-0.000129406
-8.16698e-05
-0.000128155
8.28586e-06
0.000146745
-0.000127109
-0.000105131
5.54924e-05
0.000251907
1.80434e-05
5.03978e-05
5.03246e-05
9.04119e-05
-0.000108776
4.35845e-05
7.4684e-05
0.000277509
-7.6259e-06
-1.21923e-05
0.000180841
-0.000102109
-1.80013e-05
-8.53809e-05
-0.000138798
-9.22903e-05
-7.64208e-05
-0.000100176
-2.67634e-05
-6.18347e-05
-0.000102095
9.87038e-05
8.88333e-05
0.00025498
0.000139045
3.5816e-05
8.33356e-05
-8.4613e-05
-0.000151234
-3.40671e-05
-0.000133586
-9.55013e-05
-2.46472e-05
-8.23438e-05
-7.71906e-05
-6.34309e-05
1.75498e-05
4.91036e-05
6.36234e-05
0.000140641
7.04166e-05
6.92216e-05
-4.39461e-05
-5.09152e-05
7.75028e-05
-9.58764e-05
-6.02221e-05
-0.000132634
-2.80866e-05
9.25681e-05
0.000200626
0.000247672
-4.83616e-05
-7.90438e-05
-0.000149774
0.000124885
7.39321e-05
8.84729e-05
3.60187e-05
-9.27731e-05
-0.000188623
-3.86501e-05
0.000112194
4.17405e-05
-0.000181653
-4.09372e-05
-7.14492e-05
-0.000130917
0.000148815
0.000300448
6.68456e-05
-9.04964e-05
-0.000165975
-0.000107758
4.97017e-05
-1.07465e-05
-7.71183e-05
-2.61925e-05
5.63656e-05
-3.81854e-05
0.000185866
-2.35497e-05
-1.06613e-05
6.79774e-05
-4.75564e-05
0.000103849
-2.70128e-05
4.07606e-05
-0.000115449
0.000102179
-0.000168036
2.75833e-05
5.73883e-05
-0.000110201
1.83118e-05
8.00801e-05
2.74567e-05
7.91881e-05
0.000111636
-0.000138446
-3.91476e-05
-1.89303e-05
-7.73377e-05
-0.000160212
-0.000124876
3.10224e-06
0.000109764
0.000143321
0.000234597
0.000466821
8.47115e-05
-5.09245e-05
-0.000224646
-7.43987e-05
0.000282131
-6.78354e-05
7.51251e-05
-6.12993e-05
-0.000131228
-0.000114325
0.000147534
3.35928e-05
-6.17362e-05
-6.62012e-05
-0.00019474
-2.702e-06
-1.16415e-07
6.00128e-05
4.22248e-05
2.44542e-05
-5.40327e-05
3.90785e-05
-3.77871e-05
-6.49913e-05
-7.68341e-07
0.000159544
-0.000199619
-0.000225741
-0.000131904
4.54752e-05
-7.56856e-05
0.000121719
-8.84812e-05
-0.000239763
0.000126524
4.00302e-05
1.70351e-05
-0.000170421
-1.00879e-05
1.9522e-05
0.000188302
2.92059e-05
-0.000120409
2.0857e-05
-0.000127127
0.000253996
-3.08843e-05
-0.000282939
5.31774e-06
-0.000148235
5.90796e-06
0.00025539
-6.3298e-05
-2.74247e-05
0.000251452
1.9213e-05
-8.34709e-05
-0.000119136
-9.22885e-05
-4.78998e-05
-8.35094e-05
-7.99231e-05
6.4116e-05
0.000148691
-1.06256e-05
-2.62982e-05
-0.000272387
-1.01255e-05
8.85469e-05
4.12542e-05
0.000164884
6.06814e-05
-0.000387203
-0.000153609
0.000280782
7.64068e-05
-0.00017811
5.88584e-05
0.000164345
0.00010788
-3.41142e-05
1.58872e-06
8.71893e-06
9.50657e-05
3.92788e-05
-2.29223e-05
-0.000153915
9.40041e-05
-3.93332e-05
5.0322e-05
1.61119e-05
1.61511e-05
-0.000160885
-0.000234886
-0.000164889
1.44975e-05
-0.000116303
7.92897e-05
-9.47124e-05
1.6571e-05
0.000184827
0.000182636
-0.000199906
2.27076e-05
0.000127594
-0.00018078
-7.1127e-05
1.47466e-05
-9.92549e-05
3.47156e-05
-5.47001e-06
4.46837e-05
-4.9388e-06
0.000348801
-3.19972e-05
7.2873e-05
-0.000218269
-0.000147836
5.06946e-05
0.00016518
0.000207322
2.21486e-05
-0.000137638
-7.91954e-05
6.86272e-05
-0.000196916
-5.47074e-05
8.16876e-05
0.000127357
0.000117021
6.8073e-05
4.17128e-05
1.37329e-05
-0.000153236
-0.0003305
-0.000125625
-6.3245e-06
0.000134319
-0.000136031
3.18798e-05
-0.000152276
2.98237e-05
0.00016767
-6.1579e-06
0.000101161
-8.97046e-05
-0.000106398
-0.000201932
-0.000158716
-2.45755e-05
0.000248265
0.00019403
0.000103261
-4.60772e-05
-7.9203e-05
6.06474e-05
8.36479e-05
0.000120388
0.000179537
-1.99284e-05
-0.000138839
-0.000225939
-1.97366e-05
-0.000207854
-9.47327e-05
2.02347e-05
0.000125333
2.13943e-05
0.000243847
-4.09968e-05
-7.54333e-05
-2.6757e-05
-3.11547e-05
5.28188e-06
-6.42594e-05
-5.00106e-05
3.35076e-05
-9.59763e-06
0.000117686
-0.000194981
-0.000156357
5.09534e-05
6.54073e-05
-0.000226995
0.000125844
0.000118181
-0.000248535
-5.32822e-05
-0.000237311
-3.54531e-06
8.22879e-05
2.40123e-05
0.000267213
-0.000121928
0.000148927
0.000230273
3.39057e-05
9.04332e-05
-4.81926e-05
2.44565e-05
-6.04431e-05
-3.77744e-06
0.00010287
8.893e-05
-9.04344e-05
0.000136093
-0.000185086
-0.000167161
-2.92761e-05
-0.000201702
-0.000206234
-4.2913e-06
-3.0034e-06
-5.03975e-05
2.86906e-05
0.000123
-1.63569e-05
6.94639e-05
0.000117169
8.53953e-06
1.67643e-05
-4.00216e-05
-0.000185065
-8.5969e-05
7.66951e-05
0.000255226
0.00017406
-1.21202e-05
1.6804e-05
9.60652e-05
-5.78373e-05
-0.000198007
-0.000129206
-4.60558e-05
-8.51981e-05
0.000108561
0.000251153
-3.67791e-05
-3.09849e-05
-0.000264207
0.00010519
7.79226e-05
8.46267e-05
-6.17849e-05
2.56379e-05
-0.000168032
1.37631e-05
5.75989e-05
9.50616e-05
-2.46752e-05
-0.000133169
0.000171273
-0.00013882
-6.53001e-05
-0.00010889
-6.80839e-05
-0.000102709
-5.01209e-05
2.39464e-05
-9.67646e-05
-0.000257495
1.00113e-05
0.000292538
0.000107908
0.000231966
-3.9637e-05
7.03058e-05
0.000189686
0.000259283
1.65782e-05
-8.18763e-05
-0.000131131
-0.000131939
0.000139919
0.000144853
0.000111383
3.18773e-05
-7.57753e-05
9.18387e-05
0.000269132
0.000129201
-1.68064e-05
0.000107733
-1.70917e-05
8.809e-05
0.000119065
9.4147e-05
0.000103595
9.59849e-05
-7.16655e-05
-4.57622e-05
5.22665e-05
-5.85528e-05
0.000104662
0.000147707
-0.000241523
0.000106436
8.90072e-05
0.000131888
2.75363e-05
-4.86488e-05
0.00019543
0.000155152
0.000144252
-9.18026e-05
7.39646e-05
0.000255257
0.000101759
-0.000148532
-0.000194771
-1.50832e-05
-2.10571e-05
2.60596e-05
-7.55729e-05
-0.000111956
-0.000192632
0.000123787
0.000188042
-4.11172e-05
3.0084e-05
-1.31255e-05
-6.94765e-05
-2.53964e-05
0.000135633
0.000135122
-0.000183027
4.60595e-05
5.58e-05
0.00010451
0.000113228
0.000140717
0.000117413
-1.96409e-05
-2.82081e-05
0.000111429
-3.16864e-05
-5.78185e-05
3.5341e-05
-2.49017e-05
-5.37192e-05
1.95599e-05
6.03369e-06
8.77643e-06
0.000256796
7.64655e-05
-6.2905e-05
5.2331e-06
0.000273035
0.000140562
-5.08779e-05
-3.47941e-05
-9.20906e-05
-0.000178438
-0.000102112
0.000139518
-8.87846e-05
-0.000274215
-0.000147458
-0.000141363
-0.000112683
0.000289739
-0.000115636
-8.10582e-05
6.13763e-05
0.000124027
0.000136212
2.50797e-05
4.80071e-05
-5.07291e-05
-2.91141e-05
-8.6204e-05
0.000141335
0.000154865
0.000289377
7.76431e-05
7.34814e-06
-0.000107527
-4.36092e-07
-1.09107e-05
0.000125
-0.00018366
-6.67626e-05
0.000170639
0.00028509
0.000195211
-0.000100053
-0.000170687
-0.000192216
0.000101906
2.24167e-05
-7.38385e-05
-0.000102546
5.18332e-05
-2.27951e-05
-2.67331e-05
-4.82777e-05
0.000109962
-0.000112245
-0.000240132
-0.000217968
9.19746e-05
-0.000108408
7.84288e-05
-1.57935e-05
-0.000111085
-1.42817e-05
1.15479e-05
-8.22144e-05
9.79055e-05
-2.18769e-05
0.000119723
0.000300528
-3.53493e-05
1.93873e-05
9.6895e-05
0.000107743
0.000110369
0.000167383
0.000138671
-0.000106241
-0.000142093
-0.000196215
-0.000240972
3.98001e-06
4.54687e-05
-0.000152694
-3.84182e-05
8.88878e-06
-3.02558e-05
-0.000130673
-4.76455e-05
-0.000118649
8.95113e-05
0.000106195
0.000105346
-0.000133632
7.68866e-05
0.000227293
-5.52463e-05
9.37516e-06
-2.4087e-05
-0.000179217
-0.000109207
-6.97771e-05
-3.91202e-06
-7.39677e-05
-9.68946e-05
5.01237e-05
0.000144005
-5.46335e-05
0.000278384
5.83844e-05
-4.53037e-05
-5.74193e-05
8.93127e-06
-1.80803e-05
-2.78384e-05
-0.000271276
-0.00017597
0.00026922
8.38665e-05
0.000122078
3.26821e-05
3.98038e-05
-5.6813e-06
-0.000370365
-0.000133833
-4.11626e-05
0.000245774
3.43793e-05
-4.52565e-05
0.00028055
-0.000114789
-0.000142108
-3.6543e-05
-5.26995e-05
-0.000111578
0.000138041
-2.12063e-05
3.92075e-05
-6.84755e-05
-0.000101932
-1.33202e-05
-1.31815e-05
-2.444e-05
3.15136e-05
9.97875e-05
-0.000120489
-8.29243e-05
0.000171061
0.000144092
-6.27362e-05
6.55823e-05
2.78529e-05
-0.000100499
-0.000113525
5.45883e-06
5.23473e-05
5.74788e-05
4.02293e-05
3.52578e-05
-0.000142353
2.90765e-05
-4.69987e-05
-1.62914e-05
-4.0044e-05
-6.18548e-05
0.000216143
9.67669e-05
1.46031e-06
-8.68712e-05
0.000142378
6.0695e-05
9.14313e-05
0.000264427
-6.20397e-05
-9.99355e-05
8.51997e-06
0.000349651
0.000193302
-5.98242e-05
-0.000128901
-1.97501e-05
-8.52251e-05
-7.92092e-05
-0.000111228
4.86505e-05
-0.000102025
-4.8076e-05
4.30293e-05
6.4085e-05
9.12307e-05
-7.34382e-05
8.54954e-05
0.000174696
-2.62094e-05
0.000111046
-7.19333e-05
-2.64464e-05
-3.1685e-05
-0.000150879
0.000205295
-0.000126299
-2.2857e-05
-7.07214e-05
-7.02373e-05
3.34557e-05
0.000113734
-9.46544e-05
0.00019775
8.02776e-05
-3.29089e-05
-4.09915e-05
8.73832e-05
3.22033e-05
-0.000101224
0.000134203
-0.000231628
-0.000125666
0.000215452
7.07763e-05
0.000167287
-2.34286e-06
-0.00019002
-9.32713e-05
-6.49806e-05
0.000111411
5.72922e-05
5.31124e-05
8.73709e-05
-0.000239175
0.000133571
-0.000109996
1.39652e-05
3.62425e-05
-3.74377e-05
0.000276721
0.000206394
-2.42633e-06
0.000176363
-6.24617e-05
-8.94635e-05
-0.000358777
-9.24759e-05
5.75632e-05
2.77061e-05
-0.000111714
-0.00018117
3.45723e-05
0.00010764
7.1284e-05
3.77779e-05
0.000111476
6.13325e-05
-8.64035e-05
-0.000171819
-0.000142562
8.83867e-05
-0.000185454
6.3917e-05
3.39632e-05
-0.000100848
4.72362e-05
0.000120094
0.000103077
8.68754e-05
0.000194063
0.000145499
0.000343157
-0.000197974
4.39771e-06
-0.000177333
-0.0002731
-4.38971e-05
-4.30419e-05
7.35959e-05
0.000290982
0.000119189
4.88766e-05
0.000110718
0.000135084
-9.93118e-05
8.11132e-05
1.86567e-05
5.03007e-06
-0.000119985
-8.8384e-05
4.99615e-05
0.000100815
9.33763e-05
-7.77683e-05
7.96247e-05
-0.000249784
-0.000268215
-5.64296e-05
-1.05039e-05
-3.96733e-05
-0.000214032
8.8725e-05
-0.000215755
0.000144388
-9.39704e-06
2.82179e-06
4.97486e-05
0.000143649
3.37341e-05
-0.000148565
-0.00013368
6.98006e-05
-0.000206289
6.96053e-05
8.34917e-05
0.000421843
7.41992e-05
-7.04584e-05
-1.85596e-05
0.000134276
-0.000183954
-0.000111852
-0.000201033
8.65455e-05
-5.72898e-05
-3.04475e-05
-4.60423e-06
-2.62852e-05
-5.24402e-05
-0.000174364
-7.00013e-05
-0.000134788
-9.66329e-06
7.68978e-05
0.000182756
-6.65998e-05
0.00023039
-9.16733e-05
-2.1679e-05
-2.65428e-05
-0.000162675
-0.000106876
-6.33614e-05
-2.16137e-05
-5.25508e-05
-3.87973e-05
1.31261e-05
3.52499e-05
9.0545e-05
4.98248e-05
-0.000137363
0.000101936
5.11573e-05
-6.04452e-05
-9.96601e-05
0.000126062
1.46888e-05
2.79797e-05
-4.29463e-05
3.20841e-06
4.09409e-06
0.000256224
1.49352e-05
0.00013069
0.000113923
0.000141416
-0.000174915
-0.000171995
-0.000181445
-2.95513e-05
-0.000209552
-0.000371554
-4.91345e-05
6.0276e-05
-6.63302e-05
-0.000177646
-7.92764e-05
3.61109e-05
0.00025616
-0.00016339
-4.74465e-05
0.000114436
0.000102942
-0.000145136
-0.00011833
0.000214532
8.9344e-05
0.000202409
4.5659e-05
2.22742e-05
-3.96379e-05
-0.000152835
-2.46937e-05
-0.00019391
1.78389e-05
4.3696e-05
0.000139151
-0.000203428
-0.00012428
5.90129e-05
7.18713e-06
-4.0594e-06
-0.000204655
-0.000294865
-8.35268e-06
0.000131895
0.000118899
-4.99103e-05
0.000125758
1.38313e-06
-0.000111931
-0.000113213
0.000134564
1.98046e-05
0.00014391
-7.75978e-06
3.9821e-05
-0.000182605
-2.43318e-05
7.72369e-05
-0.000145555
-8.49939e-05
7.7778e-05
0.000225983
9.86035e-05
-1.47935e-05
-3.66056e-06
5.87106e-05
-4.50114e-05
-0.000164448
-2.95835e-05
3.37857e-05
1.6932e-05
-2.09761e-05
-0.000317481
6.73661e-06
1.66774e-05
0.000100846
0.000108687
2.14856e-05
-0.000136418
0.000158346
-6.56997e-05
-0.000104363
-3.64783e-05
3.67616e-06
-8.63563e-05
-5.02735e-05
0.000128516
0.000133104
-0.00024325
0.000155814
9.88063e-06
-0.000117534
7.75116e-06
-6.21832e-06
8.64193e-05
4.97967e-05
0.00010277
-0.000116209
3.68202e-05
3.26568e-05
4.90372e-05
-0.000187343
2.16785e-05
5.03962e-06
-6.53546e-05
-4.42285e-05
-6.5762e-05
1.64229e-05
-0.000107757
-0.000124217
6.4454e-05
0.000271217
-0.000143591
-4.19141e-05
-6.96653e-05
-0.000188397
-6.75742e-05
-5.25338e-05
0.000135348
-0.00011609
-0.000148351
-8.43431e-05
-5.5015e-05
6.42133e-05
0.00018818
2.61879e-05
5.30171e-05
2.03918e-05
-2.32566e-05
5.95563e-05
8.71975e-05
8.0974e-05
6.39424e-05
0.000251862
8.56705e-05
-0.000153509
-0.000121274
-0.000221665
-8.3814e-05
-0.000110361
3.06978e-05
0.000155423
0.000182593
6.58515e-05
-8.37612e-05
6.80806e-05
1.54274e-06
-0.000204995
-0.000170155
-5.31521e-05
-6.97076e-05
5.43891e-05
-5.06211e-05
5.67344e-05
-7.15458e-05
1.84481e-05
2.34618e-05
4.38431e-05
-8.45164e-05
-0.000134028
0.000150965
-6.47686e-05
-3.00554e-05
0.000152098
2.29449e-05
-3.47964e-05
-0.000133639
2.59244e-05
-2.30952e-05
-9.94579e-05
-0.000305551
-1.35853e-05
8.41283e-05
0.000106245
-4.62396e-05
8.79536e-05
0.000233431
2.79548e-05
-0.000120601
-0.000145486
-5.1679e-05
-0.000114119
-0.000179002
-0.000135364
3.74895e-05
5.96319e-05
0.000265254
6.6486e-06
-8.1352e-05
2.46975e-06
8.94319e-05
-5.864e-05
0.000148055
1.83771e-05
-0.00018043
-0.00019934
0.000128962
0.000159925
-5.2129e-05
5.15298e-05
-2.28643e-05
-0.000300358
7.28678e-06
5.8939e-05
-4.44544e-06
-0.000131041
-0.000220275
0.000165857
0.000117061
0.000273584
0.000316139
0.000127144
-1.23249e-05
0.000184729
7.88484e-05
-0.000226036
-0.000119527
0.0001788
-3.36951e-05
-0.000121996
-8.97645e-05
0.000122151
4.80848e-05
-1.39216e-05
-0.000147965
7.05301e-05
-2.80957e-06
4.69231e-05
7.17218e-05
-0.000118739
0.000175816
9.37108e-05
2.68096e-05
-1.83501e-05
-0.000142771
-0.000155061
-1.81217e-05
8.89911e-05
1.19489e-06
-1.52625e-05
-0.000149526
0.000240948
0.000156848
9.18347e-05
-2.11349e-05
-4.78242e-05
-6.54015e-05
-2.37268e-05
-3.32766e-05
0.000137585
0.000153089
0.000158607
-3.03151e-05
4.06522e-06
-3.46004e-05
1.77001e-05
3.47525e-05
3.15743e-05
0.000112069
0.000144608
0.000152287
-4.28361e-05
5.12295e-05
-0.000124279
6.41902e-06
-0.000264367
-4.38003e-05
0.000177358
-0.00020238
-0.000131627
-9.8963e-05
4.34088e-05
6.91199e-05
-0.000161363
1.41965e-05
0.000236792
0.000238706
0.00021642
-6.94963e-05
0.000105787
0.00011201
0.000120167
5.45587e-05
3.69651e-05
0.000227622
0.000189699
-8.6695e-05
-0.000109181
-1.51272e-05
-8.4416e-05
5.46727e-05
0.000150505
-0.000135383
-4.34184e-05
-0.000207121
8.1412e-05
1.45779e-05
-0.000206687
-0.000100785
0.000219605
8.86855e-05
6.47374e-05
0.000217401
2.37979e-05
0.000117897
-4.68787e-05
-3.98093e-05
-9.51488e-05
-4.02443e-05
-0.000169853
-0.000119263
-0.000195055
3.19991e-05
3.92669e-06
-0.000229976
-0.000124024
-7.81806e-05
-2.07867e-05
-2.24517e-05
8.11322e-06
-2.64605e-05
-0.000111231
7.06917e-05
-0.000349605
-0.000121318
0.000108418
-3.67352e-05
-8.46317e-05
0.000113285
0.000118689
-0.000183822
-0.000154361
-2.18006e-05
-4.90833e-05
4.11349e-05
9.43523e-05
0.00018851
0.000215513
-7.64369e-05
2.81867e-05
0.00022526
-9.4123e-05
-3.27682e-05
6.36942e-05
7.4863e-05
0.000128497
-8.95445e-05
-0.000312224
2.93812e-05
-2.804e-05
5.89219e-05
0.000114069
8.27956e-05
-0.000220079
4.43999e-05
2.97707e-05
0.000120075
-0.000161182
0.00020035
5.60463e-05
7.49025e-05
-4.29458e-05
-0.000149887
3.76502e-05
-4.22e-05
0.000413248
5.14518e-05
0.000102069
6.97132e-05
4.7378e-05
-8.95555e-05
5.9935e-05
0.000129935
-0.000199262
-5.33729e-05
-5.14881e-05
-5.39423e-05
-5.33432e-05
-2.14332e-05
-1.69927e-05
-5.69308e-05
-1.68163e-05
0.000265031
0.000112245
-8.67213e-05
-0.000167467
-0.000179659
1.5652e-06
5.08208e-05
-3.04442e-05
-6.86012e-06
-0.000112239
5.11326e-05
2.45834e-05
-0.000250011
0.000187656
-8.94303e-07
0.00010846
0.000257059
0.000129421
0.000136406
2.60321e-05
-0.000119407
-9.57138e-05
-8.59296e-06
-0.000103803
-5.06968e-05
-7.15416e-05
-0.000156979
0.000105236
-0.000352491
0.00014008
8.1146e-05
-0.000113135
0.000129759
3.95777e-05
6.02461e-05
-0.000108779
-7.30252e-05
-9.84545e-05
-0.000168702
9.82869e-05
-0.000168522
-0.00011422
6.63396e-05
7.4134e-05
0.000108388
-1.105e-05
-1.51261e-05
-1.42119e-05
-0.000301814
-0.000216118
2.1335e-05
6.81661e-05
0.000152169
9.39007e-05
-0.000187647
5.14904e-05
4.61997e-05
-1.53364e-05
-4.26655e-05
-5.00272e-06
4.74717e-05
-0.000101755
-6.82194e-08
5.04273e-05
-2.07871e-06
-0.000116516
0.000162276
-2.74437e-06
4.33577e-05
9.46042e-05
0.000116498
3.6156e-05
-1.56921e-05
-0.000141626
-0.000235413
-0.000121669
-5.74871e-05
9.1827e-05
-6.71018e-06
-0.000157242
-0.000111751
5.49746e-05
-7.30506e-05
0.000201422
0.000103284
-2.73245e-05
9.00971e-05
-8.01813e-05
-0.000276124
-0.000236575
0.000135446
0.000300874
0.000122319
4.84595e-05
-0.000113949
-2.26611e-05
-5.74123e-05
2.20223e-05
-0.000274331
-4.07745e-05
-2.61843e-05
-2.88457e-05
-2.61362e-05
8.48966e-05
6.67281e-05
-2.27962e-05
5.08013e-06
-1.45274e-05
0.000172116
-4.79027e-05
0.000246824
8.70574e-05
-3.90189e-06
0.00011985
-0.000245125
0.000211813
-4.4258e-05
0.000196238
3.06603e-06
-0.000176806
8.37549e-05
5.63755e-05
0.00021609
0.000160613
-0.000110035
-0.000129321
2.50667e-05
6.22997e-05
6.51476e-05
1.98913e-05
-0.00026972
7.06961e-05
-4.89184e-05
0.000169714
8.92635e-05
-0.000246341
-2.4018e-05
7.07367e-05
2.51485e-05
-8.00242e-05
-0.00014885
0.000335801
-4.6954e-05
2.84693e-05
9.4265e-05
-1.0177e-06
2.05776e-05
0.000110764
-0.000239101
-0.000223815
6.65601e-05
-3.628e-05
-0.000245479
9.3213e-05
1.28094e-05
0.00011015
0.000181733
1.84888e-05
-7.01145e-05
-0.000207452
3.37734e-05
-3.03953e-05
-9.36656e-05
-4.80996e-05
7.34951e-05
6.95309e-05
1.97241e-05
0.000128862
-8.6948e-05
-0.000239731
7.8825e-05
-0.000110178
2.44466e-05
6.29417e-05
0.000355392
0.000116936
0.000114504
3.47258e-05
2.66887e-05
8.44615e-05
-0.000171194
7.40599e-05
6.12006e-05
-6.89379e-05
-0.000151727
0.000116613
0.000150796
4.53424e-05
-0.00023613
-0.000101391
-0.000101045
9.52794e-05
-5.32224e-05
0.000137737
4.30084e-05
9.34975e-05
3.72693e-05
-0.000146658
0.000198746
0.000187109
2.3315e-05
-1.08741e-05
0.00022185
-2.60934e-05
-0.00024753
1.21503e-05
-5.30437e-05
-8.5701e-05
8.4471e-05
7.2911e-05
6.84236e-05
7.97878e-05
-0.000154113
-8.6442e-05
-8.62948e-05
-0.000119428
-4.10432e-05
1.34788e-05
-0.000147745
-6.82315e-05
-0.000221835
-0.000173836
0.000247375
5.75846e-05
-6.32555e-05
-3.57919e-05
-0.00017464
2.53525e-05
-9.17583e-05
5.78735e-05
-9.20438e-05
4.06711e-05
5.89886e-05
-8.46084e-05
2.63959e-05
4.60485e-05
-0.000107585
0.000222617
0.000124596
0.000117662
0.000146385
8.74586e-05
-0.000177859
-3.85125e-06
-3.67127e-06
4.77802e-05
6.36978e-05
5.94766e-06
6.4242e-05
-2.07569e-06
-0.000172171
0.000111009
2.69957e-05
5.72766e-05
-0.000130596
-8.21133e-05
9.69259e-05
4.1268e-05
9.22867e-05
-0.000203154
-0.000149953
1.35171e-05
3.44946e-05
-0.000159154
7.00953e-05
-9.45549e-05
-2.73234e-05
-3.20771e-05
-2.66905e-06
6.3681e-05
-6.89076e-05
9.76543e-05
0.000316585
0.000180178
-3.46462e-05
-3.5973e-05
-0.000152572
-3.43289e-05
0.000218821
-1.61534e-05
-1.18611e-05
-8.40168e-05
-8.27713e-07
0.00034325
0.000199136
-1.79266e-05
-0.000248347
-9.96833e-05
0.000163532
-3.86094e-05
9.34221e-05
0.000104781
-9.21817e-05
-8.87481e-06
0.000161523
0.000101267
-0.000170221
-0.000135315
0.000125491
-8.03214e-05
7.27996e-05
0.000108844
-2.18682e-05
-0.000117487
-0.000285575
-9.9903e-05
2.13028e-05
0.000256084
-7.72123e-05
0.000253931
0.000154641
5.21818e-05
4.73377e-05
9.94231e-05
-9.74661e-05
1.64805e-05
0.000214072
-1.43026e-05
-8.63692e-05
-0.000118896
2.23565e-05
-0.000280398
-2.35275e-06
5.63305e-05
-0.000171781
-6.07965e-05
-2.29025e-05
-0.000198702
-0.00017487
0.000250206
5.95464e-05
0.000294045
0.000135555
5.0507e-05
-0.000106965
0.000233875
-5.1572e-07
-9.10258e-05
5.34581e-05
-3.87823e-05
8.17296e-05
-7.44744e-05
-9.80648e-05
-0.000353966
-0.000126815
-1.00071e-05
0.000189127
0.000231003
-5.83633e-05
7.99514e-05
0.0002769
0.000185653
-1.13145e-05
-0.000111482
-0.000208953
-6.99725e-05
1.94322e-05
5.44519e-05
-5.25106e-05
-2.65406e-05
-8.98819e-05
-0.00011919
4.19873e-05
-1.00888e-05
0.000304868
-2.74763e-06
5.51316e-05
0.000103796
6.86664e-05
-4.77344e-05
-0.000127613
-1.67186e-05
-0.000206713
-0.000101045
-6.46433e-05
7.89644e-05
0.000192645
0.000174715
7.72798e-05
-4.21848e-05
-0.000202151
2.28931e-05
-0.000109695
1.3906e-05
1.66262e-05
-0.000211834
-0.000123373
0.000105262
-0.0001052
4.70792e-05
-0.000136699
-0.000287635
6.35269e-05
0.000123307
-0.000204456
2.17749e-05
0.000188479
2.09922e-05
0.000195658
-1.13681e-05
-4.68458e-05
-4.57641e-05
-4.53476e-05
-0.000127725
-2.65463e-05
0.000158504
-7.05628e-05
-6.52828e-05
-7.87594e-05
-7.53192e-05
-3.2472e-05
0.000205396
2.62086e-05
4.56665e-05
0.000110288
-0.000108995
-4.06026e-05
-8.6166e-05
-0.00016792
3.3823e-05
6.23462e-05
2.31074e-05
-0.000118618
3.85258e-05
8.87401e-05
-0.00023117
-1.46702e-05
0.00016306
-0.000256393
-0.000139038
0.000121984
8.14048e-05
-0.000143383
0.000134127
1.33687e-05
9.19537e-05
0.000120117
0.000164362
0.000198058
-6.95308e-05
-0.000164208
0.00027212
9.53743e-05
-0.00012883
-0.000200359
-4.74667e-05
-2.33923e-05
-6.2546e-05
9.60499e-05
0.000190382
-4.13028e-05
0.000167841
0.000180284
7.85301e-05
6.13111e-05
1.62954e-05
-0.000146576
-6.27608e-05
-1.89425e-05
-2.10515e-05
6.38908e-05
-2.42481e-05
-0.00012064
2.96053e-05
-0.000221326
-9.50403e-05
0.000136229
6.36867e-05
-8.72407e-05
-8.87101e-05
0.000144723
0.000163601
-3.58715e-05
0.000137603
-7.51787e-05
-0.00028172
-3.34083e-05
-0.000109631
-0.000124843
1.87695e-05
2.50067e-05
0.000245423
0.000169458
0.000110216
-0.000150654
6.39351e-05
-0.000153609
3.29819e-05
-0.000137337
-0.00015582
9.09879e-06
0.000113948
0.000103321
-8.32099e-05
0.000171114
4.38222e-06
0.000102032
9.36389e-05
-3.37203e-05
-2.87825e-05
-1.8432e-06
-0.000105011
-0.000182771
-0.000163177
-1.85992e-05
0.000292399
0.000106891
-2.68937e-05
0.000122199
0.000135003
0.000104558
8.88109e-06
-0.000165454
-0.000216824
-4.26691e-05
-2.16367e-05
-4.19669e-05
3.13442e-05
-4.19409e-06
-0.000281496
4.76299e-05
-4.58574e-05
-5.14581e-05
-0.00021614
8.73355e-05
-3.58203e-05
0.000151365
-0.000185304
0.000115616
-6.0185e-05
0.000105933
0.000367066
4.37673e-05
-0.000148713
0.000171388
7.18073e-06
3.92082e-05
-0.000115155
0.000148816
0.000223108
-3.48149e-05
-0.000178834
-0.000137848
0.000133575
2.86527e-05
-1.89056e-05
-5.81974e-05
-0.000105526
-0.000193847
-9.98261e-06
-3.81342e-06
0.000151746
9.04178e-05
1.3113e-06
2.27113e-05
-4.79973e-05
0.000165476
0.000220077
0.000113519
7.62956e-05
-4.97943e-06
6.28987e-05
-1.68751e-05
-8.79024e-05
-2.69539e-05
-0.000210126
-4.27201e-05
-1.28734e-05
4.72057e-05
0.000333437
9.47258e-05
0.000113668
5.94417e-05
0.000136123
2.55594e-05
-4.13146e-05
-7.34625e-05
-0.000124697
-0.000244683
-0.000359374
-1.7548e-05
3.6201e-05
0.000111405
3.60981e-05
-0.000254449
-6.87556e-05
-4.32937e-06
-0.000140825
-0.000111482
-7.80041e-05
2.19438e-05
0.000262948
0.000146022
-2.34825e-05
-0.000148938
2.29897e-06
-8.60214e-05
-0.000122235
-0.000114047
-9.81927e-05
0.000105957
8.04411e-05
0.000221589
-4.90295e-06
-5.18418e-05
-6.67998e-05
6.77931e-05
1.70413e-05
-0.000132488
-0.000144344
-0.000138858
-1.83139e-05
0.000319094
0.000219083
0.000113108
6.37467e-05
-0.000115044
-8.88598e-07
7.64852e-05
-0.000141447
8.99669e-05
-1.93894e-05
-6.51972e-05
0.000117336
-1.49042e-05
-0.000130158
-4.7937e-05
-0.000123333
-4.90571e-05
-0.000141822
-2.028e-05
0.000165608
3.10716e-05
9.03273e-05
0.000147319
2.77811e-05
2.38314e-06
-8.23557e-05
-9.72186e-05
9.87499e-05
9.49355e-05
-0.000108273
-4.38502e-05
-9.94175e-06