# vtk DataFile Version 1.0
Net Charge Density
ASCII
DATASET STRUCTURED_POINTS
DIMENSIONS 256 128 1
ORIGIN 0 0 0
SPACING 0.15625 0.15625 1
POINT_DATA 32768
SCALARS rhonet float
LOOKUP_TABLE default
-6.81966e-05
0.000186565
0.000270546
0.000202111
-4.74105e-05
-9.05179e-05
8.12454e-05
-0.000197215
4.83615e-05
0.000274634
0.000305782
0.000218661
9.53316e-05
-6.54471e-05
-1.51307e-05
-4.98057e-05
0.000360138
0.000169692
-0.000100056
0.000230852
-0.000162038
0.000250764
0.000276449
0.000180362
0.00023392
-8.59497e-05
4.90985e-05
0.000356096
0.000326479
0.000105392
2.44115e-05
0.000118714
-2.07251e-05
0.000149533
0.000298853
0.000158443
-4.8221e-05
-1.3502e-05
0.00021839
2.16858e-06
-0.000125629
2.73562e-05
0.000336323
0.000337713
0.00016489
-4.65e-05
0.000383855
0.000362858
0.000171856
0.000216096
0.000102364
0.000159945
0.00018691
0.00019988
9.74678e-05
-8.91052e-05
0.000574701
8.74801e-05
5.79066e-05
-0.000274964
8.77384e-05
-0.000115566
0.000264925
6.24157e-05
-0.000157134
0.000114784
0.000301765
-3.2326e-05
-0.000205234
-9.66347e-05
0.000116825
0.000194298
-0.000169301
1.12624e-05
2.72149e-05
0.000121145
0.000417651
0.000408494
8.65709e-05
-2.41566e-05
-4.5765e-05
8.58088e-05
0.000146475
6.54419e-05
0.000144511
0.00030335
0.000429633
0.000419901
0.000166302
-6.39651e-05
0.000153273
0.000248812
7.64446e-05
0.000134956
0.000202914
4.28227e-05
6.39557e-05
3.43043e-05
-7.87575e-05
-1.40949e-05
-0.000174662
0.000120101
0.000376251
2.27212e-05
0.000447874
0.000376296
0.000334468
0.000215207
3.2692e-05
0.000203812
-0.000123643
0.000121024
-2.39334e-05
-6.32252e-05
4.59502e-05
-1.96911e-05
0.000155358
-9.02853e-05
-8.51374e-05
9.61513e-05
0.000151137
0.000318113
-0.000347208
-3.1347e-05
0.000422295
-6.94464e-06
-0.000351923
-0.000207952
-0.000144386
0.000160022
0.000122843
-4.09447e-05
0.000105625
2.38194e-05
7.89762e-07
8.55868e-05
0.000390482
0.000154787
-0.000165726
3.34482e-05
-3.35925e-05
-0.000187945
0.000160426
-9.73803e-06
0.000472761
0.000185401
-0.000289419
-1.03858e-05
7.63005e-05
0.000142287
0.000236521
0.000260152
0.000254801
-0.000151613
0.000165793
3.91239e-05
0.00020208
0.000321069
-0.000249725
-7.1896e-05
2.91842e-05
0.00014213
0.000429716
0.000217968
-3.38408e-06
-0.000162988
0.000326256
-8.50775e-06
-5.82719e-05
0.000177427
8.22193e-05
0.000135188
-5.36824e-05
0.000328897
7.33847e-05
0.000177679
1.90656e-05
0.000111674
7.76818e-05
0.000258305
0.00029566
0.000166118
-2.41678e-07
0.000183732
9.18331e-06
5.19869e-05
0.000246046
-6.95983e-05
-0.00025729
-0.000275461
-0.000112422
0.000131954
0.000412003
0.000194334
0.000371214
5.37173e-05
-0.000110602
0.000340966
6.1346e-05
-0.000149688
0.000152016
0.000259787
-1.29999e-05
-0.000259598
-2.97038e-05
0.000313608
0.00016987
9.58428e-05
-1.66836e-05
-4.773e-05
0.000288222
0.000293055
0.000222522
-0.00010525
-6.68385e-05
1.62352e-05
0.000123812
-4.84433e-05
0.000105893
-2.95208e-05
-4.62022e-05
-5.93888e-05
-0.00010045
-7.79665e-05
5.75919e-05
0.000232763
0.000379783
8.19488e-05
8.31846e-06
3.34783e-05
6.42439e-05
0.000158117
-3.7064e-05
-0.000100782
-2.52962e-05
0.000112582
0.000253606
0.000267789
0.000370691
0.000241325
-3.97165e-05
-3.49826e-05
-0.000138884
0.000228993
0.000224373
0.000544558
0.000439599
0.000199253
0.000303407
-7.75594e-05
-0.000291708
0.000167686
0.00012973
-2.72258e-05
-0.000354078
-0.000221539
-0.000130896
-4.45531e-05
2.14116e-05
-5.54413e-05
-0.000347754
-0.000257019
7.3272e-05
-3.798e-05
-3.33614e-05
-3.82172e-05
8.7323e-05
5.59797e-05
-0.000146896
-0.000194693
-0.000133654
-4.48618e-05
0.000257205
-1.27731e-06
-0.000123021
-0.000160126
-0.000230603
-1.41938e-05
-9.99309e-06
-0.000110561
-5.44182e-05
-0.000181497
-1.6955e-05
-8.73227e-05
-0.000127021
-0.000170964
-7.55673e-05
-0.000138915
0.000198127
5.86844e-05
-6.84572e-05
6.77455e-05
-5.00455e-05
-0.000249859
2.758e-06
-0.000157765
-0.000112272
-0.00023032
-0.000212217
-6.38075e-05
3.48804e-05
-0.000113299
-0.000148476
-3.96767e-06
0.000299289
0.000133767
-8.56456e-05
2.13261e-05
0.000102072
-4.50723e-05
-0.000120385
-6.9174e-05
0.000170554
-8.70214e-05
-0.000191213
-0.00020263
-0.000177215
-2.4496e-05
0.000148414
2.63683e-05
-0.000193791
-0.000225693
0.000128949
0.000132313
2.11535e-05
4.52533e-05
3.08463e-05
0.000127478
-0.000151314
-0.000204109
0.00013348
-1.25803e-05
-0.000102811
1.7182e-05
-7.10909e-05
-0.000254874
-3.05339e-05
0.000174451
-0.00017158
-0.000131097
-0.000176568
-3.24959e-05
6.67312e-05
2.38655e-05
-0.000299876
-0.000180829
-0.000129084
8.68308e-05
4.89941e-05
5.07736e-05
0.000205421
-6.33392e-06
2.86098e-05
-0.000119296
-3.32807e-05
1.98272e-05
-0.000311172
-5.84184e-06
3.64237e-05
2.60052e-05
-3.76424e-05
1.07081e-05
7.269e-05
-0.000227862
-0.000158622
-1.06962e-06
-9.30714e-05
-0.000135924
-0.000113132
0.000100344
9.1109e-06
-1.87214e-05
0.000215103
-2.03052e-05
-6.68841e-05
-0.000100766
1.268e-05
-6.22052e-05
-3.23032e-05
3.45005e-05
0.00021357
-0.000212342
-0.000238262
-8.88719e-05
0.000150966
0.000318422
1.79275e-05
-0.000223138
-0.000150911
-0.000130414
0.000226417
0.000161126
3.07276e-05
-3.20093e-05
-0.000233515
-6.94739e-05
-0.000116879
-0.000155877
-0.000185026
-0.000265411
5.81776e-05
3.00641e-05
3.90678e-06
-9.788e-05
-0.000111442
1.38493e-05
-0.000106962
-0.000128773
1.25257e-05
-0.000229478
-3.98202e-05
-8.53316e-05
-0.000125773
0.000141213
-8.21205e-05
-0.000113293
5.35888e-05
3.6459e-06
-1.02911e-05
-0.000149607
1.98567e-05
-0.000115147
0.000166163
9.00682e-06
-3.50563e-05
4.02958e-05
0.000102583
6.22533e-05
2.44757e-05
5.92524e-05
6.75567e-05
-0.000152586
-0.00021369
-0.00011881
-0.000218676
-8.30849e-05
0.000208886
4.23033e-05
-0.000259921
-0.000238627
-0.00017619
-0.000156787
5.49993e-05
-0.000125766
-4.39086e-05
-0.000200472
-0.000222327
2.84886e-05
0.000141341
-0.000113804
8.67443e-05
-2.47104e-05
-0.000258546
6.34032e-05
0.000204357
-0.000240173
-0.00034085
-0.000126316
-0.000128928
-5.09864e-05
-4.15416e-06
0.000172558
-6.40494e-06
-3.74797e-05
-0.000257268
-3.30595e-05
2.66217e-05
6.78763e-05
0.000170383
3.85996e-05
-3.41192e-05
0.000100137
8.84167e-05
-4.41377e-05
-0.000113839
-8.33184e-05
-4.68876e-05
-9.0215e-05
3.97591e-05
-8.48263e-05
8.41301e-05
0.000139465
-0.000115237
1.46655e-05
-0.000134151
1.22739e-05
-0.0001326
-2.89418e-05
0.000107077
-9.77947e-06
-0.000361593
9.95314e-05
-3.86821e-05
-0.000191822
-0.000123553
-2.78812e-05
5.58172e-05
-3.66733e-05
-0.000309766
1.30412e-05
-3.54946e-05
-0.000192655
-0.000161944
-0.000119759
9.78794e-05
-4.47815e-05
-0.00021494
7.92178e-05
-0.000187054
-7.53164e-05
-0.000179758
-0.000117699
-0.000179355
8.40708e-05
-6.86615e-05
0.00019493
-0.000141546
-0.000146291
0.000110281
0.000151618
0.00020459
-6.0682e-05
-9.51693e-05
4.40276e-05
6.0278e-05
4.53398e-05
4.77284e-05
-2.43697e-05
0.000202838
0.000114647
-7.89203e-06
0.00017277
0.000229728
0.000187585
-0.000113789
-0.000157475
-4.48229e-05
-3.71493e-06
0.000142912
5.59525e-05
-0.000147557
6.45303e-05
-1.24092e-05
-9.90918e-05
-9.68536e-05
-0.000117917
-9.13022e-06
0.000155325
0.000209148
-6.96826e-05
-1.318e-05
-5.02616e-05
-8.97797e-05
-0.000158263
-0.00018119
-0.000173735
0.00017445
2.47785e-05
-9.82312e-07
-5.03145e-05
-4.25982e-05
3.14962e-06
1.44312e-05
-0.000116788
-3.9869e-05
-0.000219291
2.63914e-07
1.46138e-05
-0.000160319
-0.000224032
0.000161376
0.000162823
-1.28493e-05
4.17241e-05
3.54984e-05
1.12206e-05
0.000141777
7.88756e-05
0.000196739
0.000240592
1.51615e-05
0.000129639
0.000221701
-8.80562e-05
-9.16849e-05
-0.000188633
-0.000143837
-0.000168708
-0.000126548
2.97308e-05
3.42053e-05
-5.33379e-05
-0.000134066
0.000187498
0.000130487
0.000128504
0.000118626
6.28619e-06
0.000205539
6.63544e-06
-0.000173606
-1.90015e-05
-7.22307e-05
-4.75857e-05
6.4132e-05
-0.000104659
9.03616e-07
-8.52435e-05
3.58205e-05
-3.79747e-05
2.48959e-05
0.000149947
1.12997e-05
-2.75888e-05
-0.000144312
2.4843e-05
9.90226e-05
-2.96941e-06
3.62017e-05
-0.000145705
4.71121e-05
0.000174086
0.000282747
0.000134384
-8.77734e-05
8.95363e-05
-0.000259668
7.05617e-05
0.000187797
8.6537e-05
7.50164e-05
-0.000268123
-0.000139918
4.15097e-05
0.000186297
-9.9429e-05
-0.000104383
3.81132e-06
-7.17925e-05
-0.000279332
0.000169116
0.000370659
0.000132367
-5.36216e-05
6.43532e-06
-0.000128884
-0.000138245
-1.16025e-05
9.21008e-06
-0.00018418
1.18725e-05
6.7624e-05
0.000172738
9.91442e-05
2.02351e-05
-0.00014533
3.33786e-05
0.000284985
6.26431e-06
-4.29185e-05
-2.5949e-06
0.000186944
1.40746e-05
-4.512e-05
-0.000114974
-9.9054e-05
0.00015656
1.47428e-06
-6.38256e-05
4.95503e-05
-8.1706e-05
-3.6356e-05
-3.91358e-05
0.000118247
-0.00013744
-0.000154897
-8.89105e-05
-1.87743e-06
-1.71165e-05
0.000252009
0.000306052
0.000197939
4.88185e-05
-0.000107989
-0.000160249
-0.000200236
0.000191855
6.89995e-05
-0.000142123
-8.84251e-05
-7.54886e-05
0.000138014
0.000152059
-4.63665e-05
-0.000126455
0.000117301
-9.39168e-05
-0.000221695
0.000235543
-3.05796e-05
3.17503e-05
-1.97696e-05
-5.62425e-05
5.09244e-05
-4.33263e-05
9.29029e-06
0.000109995
9.25963e-05
-0.000293745
-0.000173336
1.15095e-05
1.68986e-05
6.21774e-06
5.48461e-05
-0.00021608
-0.000303252
-1.13202e-05
0.000125889
-8.11901e-05
-4.80933e-05
-0.000117488
-0.000113121
0.000174521
-4.67191e-05
-2.95774e-05
-7.88223e-05
-0.000160949
0.000242808
-3.94642e-05
-0.000210978
-5.0508e-05
-0.0001731
-5.95644e-05
0.000181318
4.92216e-06
6.62919e-05
0.000267623
8.08185e-05
-0.000145363
0.000100862
1.85454e-05
-0.000105464
-1.41131e-05
6.87987e-05
0.000116645
0.000100838
-0.000130352
0.000131097
-0.000196002
-5.0516e-05
0.000110466
0.000100906
0.000372681
4.82295e-05
-0.000298723
-0.000131852
0.000267792
4.36925e-05
-2.67122e-05
5.17652e-06
0.000170692
-6.95506e-05
-3.7017e-05
0.000135439
1.18373e-05
-3.36609e-05
0.000189179
-3.85471e-05
-3.76294e-05
0.000213343
-4.99996e-05
0.000263027
-8.9997e-05
-7.16241e-05
-0.000165224
-0.000198003
-0.000107049
-7.0083e-05
-0.000145293
-1.64441e-05
0.000150054
4.6217e-05
0.000126892
0.000293204
-0.000179071
5.08697e-05
0.000172764
-0.000181802
-2.89257e-05
0.00021949
0.000108795
-5.94533e-07
1.22376e-06
-1.30407e-05
5.18805e-05
0.000372867
-9.48489e-05
-0.000193933
-0.000162081
-0.000203602
4.22238e-05
0.000131351
0.000216239
6.61559e-05
-0.000111244
8.40379e-06
-7.57359e-05
-0.000136023
-2.03256e-05
5.60293e-05
5.00843e-05
0.000190674
0.000124701
-7.56094e-06
8.80503e-05
-0.000248025
-0.000269099
-0.000249225
-2.1768e-05
7.70179e-05
-7.62404e-05
-7.21307e-05
-3.01505e-05
1.71219e-05
0.000392048
9.63776e-05
-8.59611e-06
-0.000113831
-7.9844e-05
-0.00032801
-9.09911e-05
-5.24027e-05
0.000198355
6.54645e-05
-0.00010231
-9.41269e-05
5.12977e-05
2.26109e-05
-0.000104461
0.00017218
8.18379e-05
9.93022e-05
5.85301e-06
-0.00012729
-9.23687e-05
-0.000121302
-0.000102734
1.6919e-05
-6.44765e-05
0.000142306
0.000217383
-8.97069e-05
-3.91933e-05
-5.49373e-05
-2.19643e-05
-0.000259402
-0.00011046
-0.000259273
4.87096e-05
0.000201073
1.17222e-05
-0.000347601
-0.000144717
8.84787e-05
1.10569e-05
-0.000138075
0.000116511
3.97433e-05
-0.000159925
-0.000129211
-0.000189361
0.000140731
2.85322e-05
-0.000136854
0.000209526
-3.51206e-05
0.000167795
0.000212951
3.00145e-05
7.02164e-05
-0.000163921
-4.14955e-05
-6.55612e-05
0.000135953
-1.23071e-05
0.000124044
9.37539e-05
7.29008e-05
-8.94722e-05
-0.000232871
-1.09188e-05
-0.00029375
-0.000252712
0.000134362
-4.25925e-05
-5.64912e-05
4.41705e-05
0.000163602
-4.06645e-05
5.06795e-05
0.000289468
4.74766e-05
-6.68783e-05
9.69465e-05
-2.75865e-05
-0.000134165
0.000173793
5.59704e-05
0.00014235
-0.000107469
-4.02747e-05
0.000287405
-0.000121356
-0.000232445
-9.81829e-05
-3.86222e-05
-0.000182019
-6.36101e-05
0.000156953
3.05615e-05
4.14823e-06
-0.000119689
0.000167
-0.00011233
0.000145385
-1.38581e-05
-1.32353e-05
-0.000235636
-0.000108909
8.83833e-05
8.96429e-05
-0.000116454
-0.000271004
0.000136254
-0.00013116
7.26646e-05
-0.000142264
-4.94689e-05
-9.77167e-06
3.32694e-05
0.000136966
4.95843e-05
-0.0002047
4.20845e-05
0.000297514
7.75699e-05
0.000182597
3.78599e-05
-0.000106519
0.000256328
0.000190696
4.32041e-06
2.0268e-05
-3.80316e-05
-8.64832e-05
-1.13158e-05
1.42377e-05
0.00012712
0.000181968
8.55129e-06
-2.52124e-05
0.000114076
0.000132725
6.62631e-05
-1.90884e-05
5.82845e-06
7.03611e-05
0.000143414
2.06679e-05
0.000168618
-5.48797e-05
-0.000116647
1.67079e-06
0.000123485
0.000110961
1.0251e-05
8.85886e-06
-2.71688e-05
9.41025e-05
0.00010091
3.63853e-05
2.63372e-05
-6.84429e-06
0.000120624
0.000154045
0.000136853
-1.09546e-05
-3.37403e-05
0.000293621
7.18654e-05
-0.000127554
-0.000226158
-3.71182e-05
4.58253e-05
-8.41703e-05
-9.02454e-05
-9.18956e-05
-0.000145687
4.37399e-05
5.46931e-06
-0.000102192
0.000110089
7.02098e-05
-0.000107524
-9.78238e-06
0.000165678
-2.31785e-05
-0.000293522
0.000116863
0.000179544
-2.64308e-05
5.98254e-05
5.29791e-05
-4.90323e-05
0.00015637
-3.60971e-05
8.01446e-05
0.000108518
-7.26632e-05
-5.96253e-05
2.94868e-05
-7.15822e-05
-0.000106135
-1.39513e-05
2.55202e-05
6.05686e-06
1.36092e-05
2.0439e-05
-0.000101735
0.000278906
-4.6436e-05
-0.000112347
-9.1509e-05
-0.000143375
-0.000347059
-6.74118e-05
4.94658e-05
-5.91923e-05
-0.000144458
-0.000148165
-0.00015249
-0.000152226
0.000257549
-0.000130438
-0.000220856
-5.46174e-06
0.000382285
-2.8979e-05
-7.76285e-05
6.33537e-05
-0.000131609
0.000130986
-9.4648e-06
0.000149023
0.000317556
0.000133234
0.000103343
-1.77257e-05
4.00862e-05
8.81104e-05
-7.29003e-05
3.66759e-05
-6.29984e-05
-7.23602e-05
0.000160041
0.000314587
-1.92772e-06
-0.00016178
-0.000165834
5.4806e-05
0.000192918
-5.91566e-05
-0.000240459
-0.000111274
-2.98631e-05
-1.1048e-05
-2.51469e-06
-6.75255e-05
0.000154105
-0.000168232
-3.39797e-05
-0.000122109
3.03187e-05
-1.8679e-05
7.87794e-06
-0.000113472
-5.64896e-05
3.18056e-05
-3.6136e-05
9.75655e-05
4.17116e-07
-9.98398e-05
0.000104069
0.000227744
-4.82169e-05
4.89544e-05
0.000304476
-2.07264e-05
6.87452e-05
0.00014907
-4.28688e-05
-0.000108115
-0.000156281
-0.000120841
-0.000171137
-5.83848e-05
-0.000101297
-4.50331e-05
-0.000163201
7.44066e-05
-2.79499e-05
-0.000107043
-2.23366e-06
-0.000126415
1.72646e-05
0.000140417
6.25784e-05
-0.000137689
0.000110969
2.31899e-07
-7.4507e-06
-4.88118e-05
9.53641e-05
-9.96243e-05
7.02292e-05
-7.6035e-05
-8.06743e-05
8.88144e-06
-0.000120797
-6.4533e-05
-9.21987e-05
-7.25355e-05
0.000140471
8.23609e-05
-6.65034e-06
-0.000107937
-2.01862e-05
4.53466e-05
-8.14309e-05
-0.000275392
-9.24253e-05
-4.18248e-05
0.000120381
2.7484e-05
0.000256041
-7.88792e-05
-0.000116335
-0.000152275
-0.000230259
-1.69319e-05
0.000420874
4.24554e-05
-0.00011537
0.000193004
-0.000128685
-0.000248848
-7.65659e-05
-4.10882e-05
-2.4239e-05
0.000213695
-0.000137928
-0.000154909
-8.3463e-05
-3.85131e-05
0.000148453
2.12844e-05
-0.000113146
3.14426e-06
1.5171e-05
4.11074e-05
-0.000112071
-2.45123e-05
0.000219445
-0.000110011
2.35847e-05
9.6911e-05
1.94486e-05
-6.95849e-06
-2.78584e-05
7.62474e-06
0.000144717
0.000102923
0.000127065
-0.000194011
4.88292e-05
0.000149937
0.000142254
9.42452e-06
-0.000187478
0.000118641
5.9919e-05
-6.98409e-05
-7.48554e-05
3.48509e-05
0.000117187
3.924e-05
-1.15263e-05
0.000118364
-1.36883e-05
4.25987e-06
0.000551962
0.000143163
-0.000242518
-0.00017669
-3.42617e-05
-4.40321e-05
-2.80993e-05
-0.000146448
0.00020709
-0.000258791
-0.000109456
6.39793e-05
0.000106886
2.93076e-05
1.30751e-05
1.07358e-05
7.19432e-05
9.04948e-05
3.11323e-05
1.14278e-05
-2.8552e-06
-7.34364e-05
-2.93134e-05
8.28794e-05
-9.9126e-05
0.000304306
-1.62944e-05
-3.43658e-06
1.0191e-05
0.000153064
-5.69683e-05
0.000103026
-3.68558e-05
-5.91521e-05
-5.46423e-05
0.000153409
0.000100447
-0.000152107
0.000115499
-5.60341e-05
-7.53995e-05
0.000143926
4.35124e-05
0.000209201
-2.90386e-06
-0.000104967
-0.000220502
-9.86662e-05
0.00015749
1.0789e-05
-1.76916e-05
-0.000105479
-0.000166814
-7.44015e-05
-1.9578e-05
3.14214e-05
-1.44955e-05
2.98531e-05
0.000143185
0.000241272
0.000108424
2.98807e-05
-2.27407e-05
-0.000128178
-0.000389708
3.34167e-05
1.53524e-05
3.73628e-05
-0.000121215
-4.75395e-05
0.000151745
-0.00013957
6.93786e-05
0.000139951
0.000123804
2.5874e-05
2.13118e-05
-0.000167662
2.25407e-05
0.000108989
-0.0001449
-6.86157e-05
-2.37932e-05
3.89916e-05
4.03923e-05
2.7552e-05
6.34694e-05
0.000173098
0.00020282
0.000122796
0.000180714
-7.6134e-05
-1.88528e-05
-0.000182204
-0.000181148
-0.000140197
8.09088e-05
-2.58312e-05
0.000194582
0.000154916
4.14392e-06
4.13503e-05
2.85285e-05
-0.000227117
0.000140543
0.000101458
-0.000266438
-0.000176745
1.20571e-06
-8.67662e-05
0.00010176
0.00011429
4.35545e-06
3.14438e-05
-0.000146893
-0.000118728
-0.000140852
-0.000154676
-6.00917e-05
-0.000162439
0.000235072
-8.98398e-05
0.000147512
-9.12969e-05
-2.56656e-05
-5.28744e-05
9.50068e-05
-0.000126146
-0.000149168
-0.000111933
-5.5515e-05
-0.000151538
-1.91133e-05
0.000172041
0.000395317
3.34352e-05
-4.75406e-05
7.87741e-05
4.03869e-05
-0.00010208
-6.87793e-06
-0.000138849
2.83048e-05
-9.95841e-05
4.19002e-05
-2.55635e-05
7.95742e-05
-8.0175e-05
-0.000117226
-0.000148737
0.000105922
-0.00012271
0.000173596
0.000254101
-2.26232e-05
0.000183316
1.12258e-05
-0.000180901
0.000255998
-8.86461e-05
-0.000183837
-0.0001794
-1.94903e-05
1.19538e-05
-7.39554e-05
-1.24329e-05
0.00010523
0.000150074
-7.45482e-05
-9.24929e-05
-1.67438e-05
0.000172859
0.000161301
-8.2574e-05
0.000216713
-4.04187e-05
6.19888e-06
0.000101988
4.48889e-05
-0.000139131
0.000310068
9.48375e-05
-6.1349e-05
9.42237e-05
0.000124586
-3.2906e-05
-4.97766e-05
-8.48671e-05
-0.000142587
-0.000244003
-0.000202681
-0.000116058
-4.4645e-05
-1.41404e-05
-0.000275865
-6.73614e-06
0.000250187
0.000147028
-0.000121769
-9.20508e-05
0.000155072
-5.45897e-05
-0.000198819
-8.47495e-05
0.00010963
8.96761e-05
0.000236556
7.37407e-05
-5.27813e-05
3.59793e-06
3.89502e-06
-0.000113748
-8.38931e-05
4.99911e-06
1.60576e-05
0.000133391
-0.000265112
1.27621e-05
-0.000100711
1.22645e-05
-8.93647e-05
-5.31201e-05
-0.000151842
-0.00015598
8.79127e-05
0.000268921
-0.000103159
-4.02342e-05
-3.23316e-05
-3.71882e-05
-0.000187847
2.95669e-05
0.000119129
9.12534e-05
-8.04199e-05
1.12951e-05
-0.000203032
1.98977e-06
0.000270446
-0.000145615
-0.000173073
8.43457e-05
6.14678e-05
-6.0095e-05
1.2789e-05
-5.89364e-05
5.11958e-05
-4.06187e-05
-0.000130766
0.000162356
7.91654e-05
-0.000152223
-0.000246354
-0.000139904
-0.000247309
0.000156513
0.000199488
5.28091e-05
3.132e-05
-0.00015878
7.71666e-05
3.65127e-05
-0.000143016
-0.000145601
-6.7736e-05
1.75862e-05
6.93942e-05
-3.28466e-05
0.000181818
-0.000170015
1.77382e-06
-1.39235e-05
5.35983e-05
1.85792e-05
-3.46922e-05
0.000158335
0.000100488
-0.000109468
-3.69346e-05
1.3985e-06
-5.9229e-05
-9.1741e-05
-0.000174548
4.3947e-05
-5.80708e-05
-6.99941e-05
-6.95571e-05
2.2521e-05
2.01106e-05
0.000142492
-0.000137483
0.000157466
0.000133482
-1.03394e-05
-8.88138e-05
-3.78658e-05
-0.00019092
-7.82969e-05
-8.42568e-05
0.000148527
-4.59035e-05
-0.000177852
5.79841e-05
-7.90125e-05
-6.66707e-05
8.41173e-05
0.000170427
5.41145e-06
0.000146949
0.000151327
0.000149416
6.60385e-05
7.37479e-06
0.000303635
0.000181487
6.77699e-05
-0.000194048
-6.52245e-05
-0.000132235
-1.32531e-05
-7.02171e-05
-1.64118e-05
1.16917e-05
0.000207977
-1.9812e-05
3.1604e-05
-0.000144627
3.83899e-05
-0.000189806
-0.000193248
-0.000160274
-6.17418e-05
5.8579e-06
-0.000141387
3.48038e-05
-0.000150697
0.000176001
0.000106833
-0.000163693
0.000154982
-5.26826e-05
1.60631e-05
-3.11418e-05
0.000141087
0.000176144
0.000118839
-9.79792e-05
-0.000182987
7.60449e-05
3.12922e-05
-0.000110317
-0.000104064
-0.000122076
9.46488e-05
5.40051e-05
0.000132354
8.49762e-05
0.000198583
0.000126858
2.13345e-05
-7.75128e-05
0.000143406
-0.000160553
-0.00024158
-7.2065e-05
3.56056e-05
9.8306e-05
0.00034292
-2.02418e-05
-0.000169574
6.68012e-05
-8.60101e-05
-0.000108826
7.17908e-05
0.000188432
-0.000210991
-8.16968e-05
0.000236684
0.000186507
-7.55936e-05
0.000174502
-0.000113029
-0.000274509
-1.85261e-05
3.88045e-05
-6.70742e-05
1.81487e-05
-9.37628e-05
3.16198e-05
0.000265587
0.000260437
0.00024247
0.000208669
7.79117e-05
0.000177587
-4.55657e-05
-0.000238831
-0.00015039
0.000131571
-0.000152688
-0.000133974
-4.57903e-05
0.000106192
8.59862e-05
-7.0459e-05
-0.000267412
0.000160046
-6.69683e-05
-8.44046e-05
-2.12213e-06
0.00011959
8.26931e-05
0.000115326
-6.66082e-06
-3.06771e-05
-0.000203714
-4.82841e-05
8.55166e-05
-2.26366e-05
5.34824e-05
6.90595e-05
7.825e-05
0.000196718
0.000104543
0.000142457
-2.32907e-05
2.12272e-05
-7.10785e-06
6.51096e-05
-1.21862e-05
9.62421e-05
6.74976e-06
-1.12981e-06
0.000111719
0.000102746
2.37131e-05
-4.70739e-05
3.82436e-06
8.31431e-05
-8.47867e-05
0.000176859
0.000112351
-5.72191e-05
-6.3932e-05
-0.000147613
-3.5905e-05
-0.000123905
6.03527e-05
2.95034e-05
1.05517e-05
-8.09296e-06
-0.00013769
2.16677e-05
-9.25595e-06
-0.000178229
3.04402e-05
0.000171251
0.000393235
9.45483e-05
-0.00012955
7.34106e-05
9.59776e-05
5.18173e-05
6.91445e-05
7.5642e-06
0.000247495
0.000223937
-4.41712e-05
-0.000204777
8.57518e-05
-0.0001244
6.57756e-05
-3.60613e-05
4.24904e-06
-0.000135729
-6.44742e-05
-2.89725e-05
4.77111e-05
7.0486e-06
-0.00017693
0.000115787
0.000222809
6.96642e-05
4.25299e-05
4.99111e-05
0.000199848
-2.00877e-05
-3.01824e-05
-0.000104518
-9.40451e-05
-0.000161174
-0.000140606
-0.000247261
-9.50815e-05
2.79344e-05
-0.00039699
-0.000113355
-6.06845e-05
3.914e-06
4.19302e-05
0.000125478
8.73487e-05
3.29704e-05
-9.00779e-05
-0.000471186
-9.05369e-05
0.000316316
-8.33313e-06
-0.000225382
4.46428e-05
1.52899e-05
9.05292e-06
-0.000251214
7.80808e-05
3.57139e-05
2.15548e-05
0.000345719
7.49277e-05
5.15374e-05
0.000221144
-0.00024803
0.000256974
5.17884e-05
1.30638e-05
0.000157492
-4.59736e-06
0.000128513
-0.000199506
-0.000208134
2.95707e-05
2.44691e-05
0.000101905
0.000117674
-6.94214e-05
-0.000113054
6.27991e-05
0.000117087
7.23872e-05
-7.09816e-05
8.74732e-05
7.22427e-06
0.000107193
-0.000223195
-9.31253e-06
-4.53003e-05
1.85289e-05
0.000169622
5.10928e-05
6.86516e-05
-2.33364e-05
4.01833e-05
-0.000267405
9.25721e-05
0.000219653
-0.000229756
-5.05684e-05
6.95575e-05
-0.000123509
-1.11104e-05
4.51733e-05
-0.000133086
5.2159e-05
-1.412e-05
0.000107843
-8.9854e-06
9.97295e-06
-4.42069e-05
-0.000195863
-1.02773e-05
6.72163e-05
3.03368e-05
-3.04522e-05
-0.000188354
9.33434e-05
8.79355e-06
-4.70876e-05
2.96793e-05
0.000111915
7.26088e-05
0.000209103
0.000228421
9.44496e-05
-0.000112391
-0.00019361
-1.26753e-06
-0.000124242
-9.42991e-05
-9.66082e-05
6.59154e-05
-1.15228e-05
-3.5018e-05
-0.000247546
0.00011656
0.000125906
-0.000139836
0.000139457
-8.46883e-05
5.93069e-05
-0.000161635
-0.000128571
-0.000157567
-2.34254e-05
0.000201703
-0.000262663
-0.000149625
2.64794e-05
8.11112e-06
0.000158403
3.06688e-05
2.36033e-05
0.000113479
-0.000337078
-0.000173819
-6.08576e-05
0.00021333
0.000137733
-5.47203e-05
-0.000226355
-0.000112043
-3.69735e-07
-5.1859e-05
-0.000113601
-3.56939e-05
1.11416e-05
1.64359e-05
-2.0436e-05
2.2545e-05
-0.000149433
2.318e-05
0.000122012
7.12058e-05
3.45261e-05
0.000173009
0.000168085
-2.82492e-05
-6.94258e-05
-7.45717e-05
-0.000113547
-8.79826e-05
-3.41999e-05
0.000328434
-5.48757e-05
-0.000130348
-0.000132086
-0.000124307
-8.79311e-05
0.00011411
0.000117688
0.000180363
-1.32171e-05
-1.74494e-05
-0.000116863
-0.000221892
0.000178318
0.000317485
0.00018054
8.63065e-05
-0.000180828
-7.51333e-06
-0.000126239
7.77122e-05
-0.000294729
2.71495e-05
-9.9425e-05
-0.000113502
0.000239239
5.59725e-06
-2.07322e-05
-1.56278e-05
-0.00012681
2.72995e-05
0.000164011
-8.31058e-05
0.000230992
-3.85281e-05
5.47764e-05
9.02473e-05
-9.53466e-05
8.19634e-05
-2.601e-05
3.49157e-05
0.0001057
-5.23947e-05
9.1356e-05
4.73018e-05
0.000223453
-2.31201e-07
-0.000191428
-0.000104073
5.01828e-05
7.36548e-05
-0.000117902
-2.4826e-05
-3.72516e-05
9.41306e-05
4.19077e-05
0.000129397
0.000103803
-0.000123236
5.78298e-05
4.4459e-05
5.71184e-05
-0.000184231
-2.18975e-05
0.000122718
-0.000109294
0.000245392
0.000156023
-7.99358e-05
-9.40115e-05
0.000101909
-8.70987e-05
-0.000132167
9.27256e-05
5.18743e-05
-0.000116191
-0.000129249
0.000102866
0.000111368
0.000110229
-1.77756e-05
-0.000105282
-3.78473e-05
-4.55272e-05
-0.000118578
3.41665e-05
-9.65035e-05
0.000227444
0.000185138
-3.83137e-05
9.88636e-05
3.29305e-05
-0.00011878
-0.000250848
-1.67767e-05
-3.86179e-05
2.79623e-05
0.000215894
0.000169244
7.12416e-05
0.000253992
-3.83137e-05
-3.13073e-05
5.03613e-05
0.000130065
2.33484e-05
-7.92113e-06
-5.50295e-05
9.40606e-05
1.69163e-06
0.00013751
-0.000298514
-6.29701e-05
-8.15236e-05
0.00018284
5.18e-05
0.000156308
7.28362e-05
0.000133631
-0.000115823
6.33097e-05
0.000187259
0.000119621
-0.00018787
0.000137915
0.000334688
-2.44293e-05
-0.000296412
-2.76773e-05
-0.000144272
1.73042e-05
5.60605e-05
0.000224097
0.00013499
-6.88413e-05
-1.12666e-05
-0.000191722
-2.77127e-05
-0.000251161
-0.00010459
-4.9024e-05
-6.30575e-05
-4.5775e-05
-0.000247019
-0.000127389
0.000133458
5.27152e-05
-0.000183843
7.64263e-05
-9.13782e-05
5.64911e-05
0.000144692
0.000135244
-0.000137413
7.47922e-05
-1.30351e-05
-7.11945e-05
3.3551e-05
6.8057e-05
3.84977e-05
0.000165824
0.000157179
0.00014429
0.000171924
-3.08789e-05
-0.000167036
8.64004e-05
-2.99247e-05
-1.04862e-05
-1.60444e-05
-0.000187026
0.000154952
7.03845e-05
-0.000169324
-0.000166036
0.000183649
6.0407e-05
-0.000207602
-4.4993e-05
0.000228955
-5.57335e-05
-0.000124087
-0.000259562
-0.000247337
0.000112653
3.30673e-05
-8.52823e-05
-9.95274e-05
-9.07931e-05
-4.55122e-05
2.38651e-05
0.000135547
-5.18545e-05
3.89991e-05
0.000104862
0.000296833
0.000138886
-6.59376e-07
7.75978e-06
3.71623e-05
0.00011004
0.00016301
0.0001357
-0.000103973
-0.00021998
-9.94195e-05
0.000291758
6.35461e-05
-9.19963e-05
-0.000275601
-2.94528e-05
9.41085e-05
7.11097e-05
0.0002411
-8.66279e-05
-0.000116619
-1.99419e-06
0.000393413
1.59554e-05
-0.000199785
-5.46756e-05
-2.53583e-05
-9.4953e-06
0.000183263
0.000192066
-3.18205e-05
-7.64747e-05
-0.000296805
-0.00012403
4.19526e-05
5.83214e-05
0.000176896
0.000218938
0.000132457
0.000206524
0.000150913
0.000121577
-1.23833e-05
4.68567e-05
0.000297765
7.68316e-05
-6.07027e-05
-7.29813e-05
-0.000111837
-5.94649e-07
3.72676e-05
-0.000111877
-0.000321924
1.54859e-05
0.000190389
-0.000247396
-0.000178187
0.000167101
1.6532e-05
0.000114492
-1.42839e-05
-1.49647e-05
-9.8174e-05
0.000234552
8.05862e-05
-3.01171e-05
6.95485e-05
1.21549e-05
-0.000106659
-0.000238624
-7.91962e-05
-0.000397844
-2.73056e-05
5.71073e-05
7.57085e-05
0.00019056
3.85547e-05
6.80182e-05
9.95689e-05
0.000193714
-6.10608e-05
-8.53596e-05
-8.25892e-05
-0.000155497
-0.00017257
2.4085e-05
-8.26316e-06
6.74976e-05
-9.8832e-05
-3.42671e-05
-9.601e-06
0.000105146
0.000273949
1.29931e-05
5.38945e-06
-1.44399e-05
6.95487e-05
-4.76124e-05
-8.49062e-05
-0.000126602
6.52228e-05
-0.000226966
-1.63709e-05
0.000112041
0.000144008
0.000147895
0.000186618
-8.07443e-05
-0.000152845
-3.86497e-05
-0.00010881
1.62155e-05
0.000118758
-0.000267545
-0.000225885
2.29597e-05
5.94845e-05
-0.000125943
-0.00031089
-0.000316515
5.05371e-05
-2.54005e-05
-0.000162416
-0.00018517
0.000117033
5.91087e-06
0.000106543
0.000285226
1.0831e-05
-9.25992e-05
-6.00342e-05
4.92266e-05
-5.14087e-05
-2.47648e-05
-3.2676e-05
5.86509e-05
-3.43698e-05
-0.000156231
-1.61869e-05
0.00012592
8.27573e-06
8.31337e-05
2.98735e-05
-0.000155996
1.22946e-06
1.88317e-05
-0.000199036
-7.08558e-05
0.000316518
-0.000100827
-0.000237136
2.98533e-05
-0.000147386
-0.000277331
-0.000121817
0.000193688
1.47847e-06
-5.87259e-05
0.000282022
0.000100245
2.04128e-05
5.08667e-05
-1.58488e-06
2.56691e-05
0.000184151
0.000161212
-4.08294e-05
-0.000155963
-0.00016102
0.000405482
0.000198907
-0.000284042
-7.85687e-05
-0.000113793
-2.94582e-05
-0.00015034
-8.26919e-05
6.37167e-05
-6.02661e-05
0.000269943
3.21922e-05
0.000105582
0.000147494
-4.4913e-07
-0.000226396
-6.74953e-06
-3.02148e-05
-8.3609e-05
-1.87445e-05
4.56877e-05
6.97328e-06
9.22708e-06
-0.000317906
-7.24263e-05
0.000131921
1.20252e-05
-8.95516e-05
-1.86227e-05
0.000213949
5.48118e-05
0.000198445
4.1543e-05
-0.000237459
-0.000171673
-0.000229507
2.21547e-05
2.57104e-05
2.31955e-05
8.32947e-05
0.000244652
9.67106e-05
0.000159848
-1.84833e-06
-6.86245e-06
-7.08923e-05
0.000118439
-0.000212076
-0.000310938
8.30875e-05
0.000207256
-7.29179e-06
3.38296e-05
0.000201909
7.7889e-05
0.000213549
8.60745e-05
2.97488e-05
-1.30862e-05
-4.43696e-05
-2.44554e-06
-7.70506e-05
-0.000186774
0.000203268
8.03274e-05
0.000152089
-7.25675e-06
4.33264e-05
0.000284713
7.60409e-05
-3.39292e-05
-9.15446e-05
-0.000138607
-0.00010288
-0.000125436
-0.000239984
6.23809e-05
4.13076e-06
-0.000180796
-2.39549e-05
-5.75678e-05
-3.44731e-05
-1.5886e-05
0.000104469
-0.000107016
3.36224e-05
-6.09611e-05
2.04599e-05
-0.00014411
1.21717e-05
0.000369246
5.49628e-05
-0.000161141
5.18833e-05
0.000102024
8.41445e-05
6.6885e-05
0.000283569
0.000131989
-5.1875e-05
-0.000206986
-0.000125033
1.37109e-05
-4.12837e-05
-6.04729e-05
3.21766e-05
-4.44292e-05
-0.000160293
0.000127963
9.93812e-05
9.32023e-05
6.38545e-05
-3.58333e-05
-4.27715e-05
-0.000100025
0.000208307
0.000146109
7.16427e-05
-7.90029e-06
-0.000101362
-0.000110104
-1.67452e-05
-2.04338e-05
-7.22706e-06
-0.000102891
-5.47681e-05
-8.98008e-05
7.71638e-05
0.000409624
0.00017755
-4.56574e-05
1.86525e-05
0.000186714
3.50286e-05
-0.000102152
-0.000133304
6.86257e-06
-0.000268901
-0.000274132
-0.000303805
-9.00393e-05
2.13828e-05
6.4913e-05
-0.000137799
-7.70559e-05
-0.000111505
-9.10114e-05
-8.6508e-05
-0.000134419
0.000138635
0.000185515
9.80962e-05
-5.45471e-05
-8.97632e-05
5.67005e-05
7.11721e-05
-0.000285916
-5.68593e-05
-8.34173e-05
3.28774e-05
1.33819e-05
0.000150807
-9.92999e-06
-7.00885e-05
0.000185628
6.76238e-05
0.000115816
-2.45044e-05
-0.00011758
-0.000115079
3.21084e-05
0.000247137
0.0002331
0.000290791
6.17079e-05
3.42377e-06
0.000107364
0.00011463
-1.58411e-05
-7.05738e-05
-7.8606e-05
2.70691e-05
0.000104026
-2.71334e-05
-7.3928e-05
-3.68259e-05
-0.000157976
-2.005e-05
-0.00024649
3.15416e-06
0.000230564
7.71813e-05
2.96246e-05
0.000189799
-0.000158902
2.35853e-05
-5.87445e-05
8.19068e-05
2.30668e-05
0.000120078
-8.00918e-05
-4.43003e-05
2.29427e-05