# vtk DataFile Version 1.0
Net Charge Density
ASCII
DATASET STRUCTURED_POINTS
DIMENSIONS 256 128 1
ORIGIN 0 0 0
SPACING 0.15625 0.15625 1
POINT_DATA 32768
SCALARS rhonet float
LOOKUP_TABLE default
3.57558e-06
0.00033419
-0.000209971
-2.91964e-05
-0.000157996
-0.000233949
-0.00031513
0.000128837
0.000106682
6.89001e-05
0.000266366
6.27893e-05
0.000158376
-0.000306926
3.4899e-06
3.25438e-05
0.000522118
0.000147184
-1.09972e-05
0.000185698
3.45374e-05
-0.00022514
0.000245166
0.000316209
-1.99818e-05
0.000131678
-9.87845e-05
0.000199498
-0.000132474
0.000114574
0.000310486
0.000347182
0.000248318
5.87648e-05
0.000226338
4.55348e-05
-1.35186e-05
0.000151484
-7.48768e-05
-5.39459e-05
2.83669e-05
0.000194709
0.000305815
0.000218863
-6.23511e-05
-0.000192074
0.000110256
0.000110129
0.000359269
0.000294572
0.000176529
7.37002e-06
0.000256467
0.000183103
4.15039e-05
5.96908e-05
0.000323621
0.000250577
-0.000114026
-3.17069e-06
0.000253077
0.000315707
-1.08484e-05
-0.000152412
-0.000177803
1.38875e-05
0.000328406
0.000190665
-0.000120974
0.000166608
-1.18804e-05
5.02368e-05
3.43227e-05
-9.41849e-05
3.63662e-05
0.000208824
0.00045528
0.000262724
-4.78674e-05
0.000135405
-7.90834e-05
0.000166543
0.000220992
0.0001104
2.4642e-05
0.000248906
0.000253011
-9.02042e-05
-1.11052e-05
0.000261095
-9.40624e-05
-0.000134624
-3.97903e-05
0.000255615
0.000538098
0.000471827
5.24017e-05
-4.52349e-05
-0.000318359
8.04337e-06
-0.000109327
7.43956e-05
0.00024043
0.000112758
0.000125395
6.3644e-05
0.000195909
0.000115369
0.000135329
-1.42504e-05
0.000272719
0.000199308
5.47783e-05
0.000179609
0.000190831
0.00011969
0.000213805
-5.18771e-05
6.66642e-05
0.000180895
0.000131198
0.00026634
-0.000138874
4.43486e-05
-2.69721e-05
-0.000145862
-0.00015079
-0.000305573
-0.000375698
0.000138418
0.000228815
0.000172884
0.000275553
-7.24904e-05
-0.000101909
-2.26119e-05
0.000134116
0.000122897
-0.000150177
9.62274e-05
0.000143988
-0.000265188
7.73021e-05
0.000359002
0.000481628
1.15855e-05
-3.24252e-06
-0.000117212
-2.97446e-05
0.000167642
0.000366757
0.000250119
-0.00026985
-0.000182099
7.59712e-05
0.000198505
0.000108007
0.000102332
-0.000145831
-3.61018e-05
-0.000315465
0.000216731
-0.000123193
0.00047902
0.000178835
9.61539e-05
-0.000183759
0.000131062
0.000211505
6.49184e-05
-0.000106902
0.000192448
0.000172217
0.00015651
0.000268826
-0.00010504
-0.000140135
0.000229186
0.000116359
5.7789e-05
7.96039e-05
-0.0001017
-4.32611e-05
8.52103e-05
4.49126e-05
0.000260993
-0.000352708
-0.000324045
-0.00023688
0.000100356
0.000341391
0.000179093
0.000165408
5.0089e-05
0.000239248
-7.78914e-05
0.000228543
0.000241321
1.62754e-05
2.35625e-06
-0.000134845
0.000231686
0.000124064
2.60246e-05
5.36777e-05
0.000245216
-5.47082e-06
-7.26054e-05
0.000238686
1.7395e-05
-1.61362e-05
6.68977e-05
-0.000206784
0.000140733
0.000290921
5.34998e-06
5.40523e-05
0.000232373
2.89667e-05
-0.000208609
-0.000147652
-0.000136518
-8.89506e-05
3.0156e-05
0.000164367
0.000246146
9.07424e-05
-5.73394e-05
7.61275e-06
-7.78269e-05
-0.00012556
-0.000310332
-2.22042e-05
0.000385646
5.18583e-05
8.81649e-05
0.000256034
-1.30769e-05
-2.32719e-05
-0.00017522
0.000164269
0.000378722
-7.65312e-05
0.000263355
0.000596831
0.000139286
0.000259502
0.000228846
-0.000112538
-0.000233684
-0.000198265
-2.06571e-05
0.000109921
8.52928e-06
-8.23184e-06
-0.000246568
4.84469e-05
-1.20034e-05
-9.68521e-05
5.68223e-06
-0.000136562
-0.000338788
-9.37732e-05
-2.84183e-05
0.000123893
-0.000203145
-5.21229e-05
-9.3805e-05
-9.80725e-05
4.0647e-05
5.83469e-05
5.15148e-05
0.000254613
0.000123653
8.57357e-05
6.95183e-05
2.96743e-07
-0.000111195
-0.000143079
-0.000167004
-0.000214026
-4.52821e-05
-8.81134e-05
-3.11222e-05
-3.4701e-05
-3.23098e-05
-0.000194563
-0.000253527
6.20855e-06
4.6715e-05
2.87207e-05
0.00018281
-0.000124453
-0.000298205
-3.2187e-05
-0.000124111
-9.78541e-06
-0.000203072
-1.71461e-05
2.24714e-05
-2.92631e-05
-0.00014403
2.77814e-05
0.000192658
0.00024606
8.57704e-05
-0.000109911
-0.000293177
-0.00010067
-3.43996e-06
8.64244e-06
-2.17304e-05
-5.15918e-05
-0.000234245
-4.37819e-05
4.65203e-05
-0.000110948
-9.67701e-05
-5.04307e-05
-0.000185212
-0.000163842
-3.26883e-05
9.1067e-06
-5.67662e-05
-0.000182707
8.89933e-05
1.02585e-05
-1.53837e-05
-0.000118219
-0.000138946
6.57773e-05
0.000167263
-1.63163e-05
3.02505e-06
-0.000293083
-0.00012503
3.75394e-05
7.79906e-05
-5.03095e-05
-6.40685e-05
-0.000106607
0.000317308
-5.62766e-05
-0.000165604
-0.000163609
-2.45747e-05
-0.000242317
0.000146534
2.15729e-05
2.38444e-05
0.000192282
0.000105694
-0.000191544
6.38207e-05
8.30134e-05
-4.24925e-05
-0.000118265
-3.32752e-05
-1.11288e-05
-0.000129092
6.167e-05
4.38506e-05
0.000140352
0.000128537
7.92693e-05
-0.000213857
-8.17948e-05
7.17057e-05
-0.000182046
2.17209e-05
-2.74376e-05
0.000235876
-8.67277e-05
-3.14658e-05
1.93694e-05
-2.63349e-05
2.70037e-06
9.0112e-05
-0.000198644
0.000130984
0.000176051
-0.000133592
-0.000142736
-0.000116467
2.00676e-05
0.000101408
0.000105707
-0.000202415
-0.000122559
-2.11415e-05
-1.71828e-05
-8.62867e-05
-0.000141849
1.10702e-05
-6.6367e-05
-7.8051e-05
0.000113742
-0.000296171
-0.000165885
-2.43541e-06
1.41258e-06
2.38658e-05
-0.000143485
-0.000249572
6.52937e-05
2.61228e-05
-0.000198005
6.267e-05
-7.49512e-05
-0.000115183
-4.85595e-05
9.91484e-05
-0.000113941
6.05084e-05
-0.000135709
-0.000226762
-0.000133972
1.65927e-05
6.78846e-05
-1.30926e-05
3.95626e-05
5.94428e-05
5.4091e-05
-0.000114816
7.89467e-05
-0.000149523
3.84462e-05
0.000155588
-0.000110094
-8.89609e-05
9.88916e-05
-6.13416e-06
-8.78166e-05
-8.93471e-05
-6.7103e-05
-0.000130857
0.000200902
-7.77404e-05
-8.74483e-05
6.86985e-05
-0.000171202
-6.74467e-05
-5.50088e-05
-0.000106791
4.39379e-05
3.08116e-06
-0.000247351
-0.000196761
-8.10437e-06
-0.000125323
0.000234898
-0.000132958
-5.95195e-05
-0.000175124
-9.84503e-05
-0.000181921
-0.000172144
-6.36105e-05
3.73771e-05
-0.000112121
-2.73082e-05
1.88348e-06
-0.000162311
-0.000231629
0.000183076
6.41061e-05
-7.78504e-06
7.08512e-05
6.3368e-05
-1.59538e-05
-0.000110796
-4.47896e-05
-4.31412e-06
3.60759e-05
-0.000172173
-6.00687e-05
-4.99687e-05
0.000122268
-0.000153759
2.61129e-05
0.000137252
4.85367e-05
8.99368e-05
-5.57285e-05
0.000148138
-3.63728e-06
2.85249e-05
3.2265e-05
-3.58443e-05
-9.15474e-05
9.10594e-05
7.51123e-06
0.000153007
-9.5841e-05
3.84451e-05
-0.000281667
-2.77566e-05
5.13605e-05
-8.94805e-05
0.000123268
-4.02888e-05
-0.000177214
-3.20246e-05
-0.000169554
0.000123053
0.000149181
-7.89036e-05
-0.000189055
-0.00018627
-0.000184176
-4.28568e-05
-0.000103471
5.53876e-05
0.000104551
-8.30982e-05
0.000146013
-5.95436e-05
-0.000315865
-4.10937e-05
0.000109561
0.000238915
-3.84197e-05
1.48582e-05
2.67432e-05
6.36941e-05
0.000128843
4.8831e-05
8.44717e-05
-0.000165914
-0.000130501
3.68543e-05
7.61196e-05
0.000313369
0.000134177
-0.000152975
-3.45679e-05
0.000240821
-7.68405e-05
3.08589e-05
-7.44635e-05
3.77493e-05
7.7063e-05
5.59678e-06
-0.000210315
0.000149759
-1.16099e-05
-0.000176613
6.84173e-06
-0.000217297
-4.56626e-05
1.07232e-05
-0.000267481
-0.000155107
-0.000251987
-2.59826e-05
1.86474e-05
-0.000203028
0.000100514
0.000101853
8.98611e-05
0.000281245
-0.000114225
1.44404e-05
1.9733e-05
0.000255682
5.7843e-05
-0.000131051
-0.000104654
-0.000147999
-0.000113132
4.79049e-07
-0.00015007
6.72955e-05
4.96777e-05
-1.37723e-05
0.000279947
0.000203244
3.95095e-05
-9.54954e-05
5.44951e-05
7.42127e-05
6.83784e-05
0.000272609
9.22596e-05
-7.85869e-05
-0.000110557
-0.000147065
-0.000366726
-0.000197532
0.000136507
-2.71093e-05
-8.41693e-05
0.000119184
-5.05508e-05
-7.21094e-05
-1.61862e-05
0.00016326
0.00029913
5.91984e-05
-0.000157372
-4.79743e-05
-0.000101448
-7.80129e-05
5.68706e-05
1.70735e-06
-0.000135457
-7.27547e-05
2.93972e-05
8.17365e-05
-6.17115e-05
9.00147e-06
0.000109154
0.000190543
4.24596e-05
-9.22335e-05
-0.000147476
0.000257713
3.64475e-05
0.000233788
-0.000105246
9.19541e-05
-7.21544e-05
-8.09203e-05
-0.000103431
-0.000105052
-6.81158e-05
-7.45991e-05
2.20507e-05
-8.45094e-05
0.000144684
-0.000119154
-6.6735e-05
-0.000114228
-7.11135e-05
6.89602e-05
-4.73034e-05
-0.00013289
0.000161385
-8.41342e-05
-0.00012261
4.83581e-05
7.74026e-05
0.000213902
2.09156e-05
-0.000252275
8.08446e-06
0.000137974
9.91537e-05
-0.000101382
-0.000153017
-2.307e-06
4.9112e-05
-0.000200897
2.25699e-05
4.76281e-05
-0.000249651
-9.5813e-05
6.83138e-05
-9.30544e-05
3.85962e-05
6.23274e-05
-2.20687e-05
0.000156678
5.53853e-05
-1.39157e-05
4.22753e-05
0.00020141
0.000220836
0.000132775
-0.000237142
1.2274e-05
-0.000130955
7.13945e-05
-5.33347e-05
3.84761e-05
-8.43478e-05
-0.000126413
-8.77199e-05
-1.14109e-05
5.85112e-05
-2.71219e-05
4.36837e-06
0.000334732
-1.03423e-06
0.000172728
0.000121716
1.47365e-05
-7.44797e-05
-3.38757e-05
3.81843e-05
8.33708e-06
2.6525e-05
0.00016058
8.26702e-05
-3.95608e-05
7.6683e-05
-0.000199592
0.000140755
0.000165269
-0.000124045
-2.91765e-05
6.55295e-05
-1.28741e-05
-0.00014678
2.25742e-05
8.60984e-05
0.000105129
-0.000111922
-8.36346e-05
-0.000218552
3.46615e-06
-9.38228e-05
2.62035e-05
-5.73425e-05
-0.000230885
-0.000256242
-0.000143207
0.000120084
-1.79416e-05
-0.000206041
-2.29152e-05
-7.49938e-05
-7.29217e-05
0.000158044
0.000266058
0.000263995
-8.57587e-05
-7.46222e-07
0.000127747
-9.39468e-05
-7.28172e-05
-3.37826e-05
6.7235e-05
0.000124797
-4.1255e-05
7.66437e-05
0.000231244
-0.000190956
-4.99082e-05
-0.000123574
0.000122407
1.59163e-06
-2.52852e-05
0.000191415
-2.27654e-05
-0.000206212
-5.58518e-05
-0.000155863
2.54968e-05
0.000133048
0.000117745
4.47185e-05
6.1765e-05
-9.96524e-05
-0.000137506
-9.57865e-07
1.89758e-05
0.000106952
-2.96766e-05
-0.000401936
0.000106034
-2.50097e-05
-0.000135004
-2.58771e-05
-0.000153748
-0.000153173
0.000194488
-0.00025229
0.000118487
0.000108987
-6.49502e-05
-9.027e-05
-3.83426e-05
-9.23437e-05
5.04553e-05
-5.99531e-05
-6.40237e-05
-4.04083e-05
-0.000237009
-2.63099e-06
4.2591e-05
0.0001717
9.13487e-05
6.52192e-05
-2.78023e-06
-0.000204248
0.000159246
0.0001328
0.000256761
0.00035981
1.24823e-05
-1.93779e-05
5.72987e-05
0.000210521
-0.000117753
-9.49284e-05
5.37789e-05
-7.89249e-06
-0.000106917
9.02043e-05
-0.000136555
7.80587e-05
0.000164767
0.000123041
0.000116883
0.000130677
-6.00665e-05
5.92612e-05
-4.31181e-05
3.9315e-05
2.36519e-05
-0.00017144
3.48482e-05
0.000174178
0.000119892
-5.63748e-05
-0.000165945
-0.000102919
2.74293e-05
-0.000126927
-9.77175e-05
-0.000203872
7.48115e-05
-2.23112e-05
6.68603e-05
0.000268523
0.000192009
9.31766e-05
-6.22255e-05
-0.000188732
-0.000213637
4.81383e-05
-1.54586e-05
0.000244544
1.31193e-05
4.11482e-05
0.00013547
8.83965e-06
2.12677e-05
-2.46373e-05
6.01343e-05
3.05504e-05
-0.000138359
-9.28901e-05
3.17527e-05
0.000280016
-6.66894e-05
-8.51136e-05
-7.67135e-05
1.54494e-05
-0.000108003
-6.6753e-05
-0.000109751
-3.80893e-05
-0.000197114
-4.08253e-05
1.57281e-05
1.9853e-05
8.98415e-05
2.7985e-05
-0.000162536
-6.06342e-05
1.88688e-05
-0.000216892
1.10308e-05
-8.2647e-05
5.85755e-06
6.38179e-05
5.35803e-05
-0.000244352
-7.60239e-05
0.000174037
7.83801e-05
-0.000226873
0.000205515
-3.78564e-05
-6.26392e-05
-0.000108523
0.000110411
0.000139531
0.000119609
9.64918e-05
-8.58841e-05
-0.000108444
-2.4775e-05
-7.1579e-05
-7.87319e-05
-4.69906e-05
-0.000320951
-9.69268e-05
1.95974e-06
-0.000284175
3.19052e-05
0.000102503
4.31682e-05
-0.000183359
-5.71972e-05
2.88888e-05
-5.62117e-05
6.65628e-05
7.42037e-05
-8.44839e-05
6.12749e-05
0.000183656
-4.80209e-05
4.29358e-05
-8.25303e-05
7.4195e-05
4.92819e-05
0.00010838
9.69418e-05
5.09567e-05
0.000198829
-3.27926e-05
-9.26924e-05
5.12783e-05
-9.14945e-05
4.427e-05
0.000173482
6.30217e-05
-0.000199003
-0.000119541
0.000140547
-7.73902e-05
-2.66836e-06
-0.000109095
-4.39708e-05
-8.59335e-05
6.80059e-05
8.76838e-05
0.000213042
-0.00011239
-0.000307482
-0.000222446
4.92348e-05
8.25967e-05
1.78199e-05
0.000122388
7.36476e-05
2.05252e-06
0.00021129
7.61354e-05
-8.57991e-05
-7.45677e-05
4.15662e-05
3.64517e-05
-5.19142e-06
0.000152596
-4.8564e-05
-4.24286e-05
0.000206186
5.53165e-05
-5.49237e-05
4.283e-05
2.8278e-05
-0.000183975
-9.38781e-05
4.40066e-05
6.71019e-05
8.89363e-05
0.000140564
2.48514e-05
-3.47765e-05
-1.23179e-05
2.53789e-05
0.000238273
0.000221589
0.000112126
5.25441e-05
0.00011855
-0.00017806
-9.60465e-05
-0.000133566
-0.000137756
0.000110664
5.92867e-05
-0.000102356
-1.72937e-05
9.07537e-05
0.000141614
-5.50252e-05
0.000320956
5.75231e-05
-0.000186108
0.00010375
0.000244053
1.06578e-05
-6.33221e-05
-1.4724e-05
-8.11307e-05
-7.61874e-05
8.0245e-05
9.53824e-05
-0.000200963
-8.70827e-05
-0.000146463
-3.74941e-05
-6.06212e-05
-0.00010402
-5.80782e-05
0.000216379
4.72518e-06
-2.15534e-05
0.000100187
6.74371e-05
-8.54621e-05
8.21874e-05
0.000163123
8.13844e-05
2.87491e-05
0.000144901
0.000199294
-3.58261e-05
-1.32725e-05
0.000176606
-0.000283821
-0.000109858
3.92589e-05
3.8347e-05
0.000243564
-2.85854e-05
8.84954e-06
0.000159709
4.37393e-05
0.000133566
-5.33586e-05
-2.08931e-05
7.61392e-05
-9.50675e-05
-0.000103685
0.000167718
-4.18824e-05
-0.000268199
-4.46223e-05
-0.000192809
3.0118e-05
-2.70092e-05
-9.14002e-05
-6.2243e-05
-4.68335e-05
-0.000134964
-6.31692e-05
5.83213e-05
-7.84675e-05
-8.13376e-05
0.000175589
8.02812e-05
-5.37732e-05
0.000175271
0.000167548
-0.000189247
-4.84412e-05
0.000100028
-0.000123415
-0.000137279
9.1052e-05
-4.26763e-05
0.000119263
0.000255074
-2.31445e-06
2.43101e-05
0.000113162
6.21155e-05
9.59563e-05
-9.09853e-05
4.32283e-05
9.59904e-05
5.54633e-05
6.04173e-05
-4.91142e-05
2.00327e-06
-6.27685e-05
-0.000361224
-0.000157722
-0.000135761
-1.56823e-06
-0.00022807
-5.19853e-05
0.000198507
-0.000110714
0.000177582
-9.13214e-05
0.000110205
9.88076e-05
-1.29003e-05
-0.000308601
-0.000171635
-6.57226e-05
-6.78877e-05
0.000127573
-7.44076e-05
-0.000189487
1.62898e-05
0.000186876
-1.46835e-06
0.000183934
0.000261487
0.000243613
8.00481e-05
-0.000173525
9.92698e-05
0.000119856
-4.74085e-05
-5.37346e-05
-3.64215e-05
-2.87024e-05
-8.56569e-05
-3.07866e-05
7.75196e-05
9.23523e-05
-0.00010134
-4.12804e-05
-9.81701e-05
1.45358e-05
-6.33827e-05
2.44165e-05
-0.000220159
-0.000101146
0.000353491
3.47857e-05
-1.87177e-05
9.09367e-06
-4.52804e-05
-0.000122248
8.79921e-05
9.07516e-06
-0.000211836
-0.000122036
-7.59503e-05
-6.88317e-06
-8.20607e-05
-0.000199719
0.000317588
0.000144564
8.75588e-05
-3.32444e-05
-4.31294e-05
-1.29691e-05
1.49115e-05
-8.41219e-05
5.34522e-05
-1.49278e-05
0.000115225
0.000151106
1.68848e-05
9.07648e-05
-1.85042e-06
-7.82199e-05
-0.000123581
3.34111e-05
0.00020684
1.74077e-05
8.37499e-05
4.43056e-05
-2.86089e-05
-6.25392e-05
0.000126582
4.33171e-05
0.000148275
0.000136263
-7.92911e-05
-5.79117e-05
-0.000175315
-0.000133715
-0.000127027
-5.29314e-05
-1.29738e-05
0.000172924
-8.02439e-05
-6.86385e-05
-2.15564e-05
8.36027e-05
-4.78774e-05
-0.000363757
1.29977e-05
0.000189451
0.000127387
2.39417e-05
9.19967e-05
5.10552e-05
6.7335e-05
-2.40318e-05
0.000162093
8.42665e-05
-0.000107043
-5.9523e-05
0.000140335
-2.54237e-05
-2.1294e-05
-9.16066e-05
0.000204653
3.69467e-05
-9.23179e-05
0.000246176
0.000180598
-8.15666e-05
-0.000272087
1.57405e-05
0.000146823
0.000124174
0.00042222
-7.55475e-05
-0.000138192
-0.000112889
6.24126e-06
-6.19816e-05
-3.805e-05
-5.02445e-05
0.000178835
2.09664e-05
-5.55048e-05
-2.85194e-06
0.000157869
-8.11802e-05
-0.000289986
0.000131302
-9.59751e-06
-4.37947e-05
0.000229457
-4.50539e-05
-0.000147427
0.000153131
0.000246209
4.92504e-05
0.000140323
-3.40887e-06
-0.000110212
0.000179072
0.000149794
4.15966e-05
0.000395664
-2.70772e-05
-0.000117649
-9.98983e-06
-7.15379e-05
-4.34711e-05
0.000167874
7.51558e-05
-0.000192251
-9.97038e-05
0.00022954
0.000244684
-0.000123071
9.15714e-05
4.47861e-05
4.16702e-05
-0.000146813
-2.53115e-05
-0.000199706
3.46068e-05
0.0001376
-0.000208194
-1.84375e-05
4.64242e-05
2.85243e-05
8.34782e-05
-0.000164297
-1.04005e-05
-9.59495e-06
0.000127207
0.000212831
1.70046e-05
-0.000164156
-0.000104522
-3.5394e-05
-0.000155314
0.000143328
-1.7327e-05
-4.50313e-05
-3.72753e-05
-0.000140554
-0.000143896
0.000140716
6.49291e-05
0.000146327
-4.18049e-05
-7.4408e-05
0.000122299
4.73822e-06
4.22117e-05
1.49115e-05
-7.88586e-06
-3.73723e-05
-5.65813e-05
-4.13939e-05
2.2631e-05
0.000199546
-2.1046e-05
3.8757e-06
8.0655e-05
1.65619e-05
4.52215e-05
7.4822e-05
0.000101624
-9.48184e-05
-8.32853e-05
-2.4962e-05
1.16922e-05
8.43618e-05
8.51636e-06
-0.000125294
0.000150262
0.000180057
-0.000113807
9.58238e-05
3.96256e-05
-0.000113395
4.51509e-05
-1.60688e-06
0.00013406
-6.80777e-05
5.57902e-05
-9.57079e-05
-5.78132e-05
-0.000256084
-4.15104e-05
6.74108e-05
-0.000103554
-6.80642e-05
-0.000193224
0.000107584
8.159e-05
1.48604e-05
-0.00011624
-4.37938e-05
2.51259e-05
-0.000155692
-6.04261e-05
-0.000255169
-0.000196412
9.70426e-05
-5.91204e-05
-0.000222749
0.000104548
0.000435773
0.000128217
-0.000117943
1.41884e-05
2.12572e-05
6.5093e-05
-7.51745e-05
-0.00023811
-6.81703e-05
7.4141e-05
0.000276706
-5.84151e-05
0.000124863
-6.24615e-05
-0.0001495
-0.000201541
-6.14856e-05
3.34057e-05
6.23808e-05
4.50939e-05
6.15157e-05
-6.78818e-06
5.86901e-05
9.41647e-05
-3.0715e-06
0.000169989
-7.05798e-05
-7.57948e-05
-1.44425e-06
2.69491e-05
8.92532e-05
-5.4874e-05
-1.12106e-05
0.000152702
5.28586e-05
2.18186e-05
-0.000156343
-0.000105225
0.000146023
0.000310221
0.00020534
3.0229e-05
0.000133147
0.000245171
6.1427e-05
6.06261e-05
0.000168796
-9.52266e-06
3.45265e-05
-6.83762e-05
-9.75641e-05
-2.46282e-05
-3.84756e-05
-6.00822e-05
-4.76547e-05
-0.000157933
0.000127544
-6.91914e-05
-0.000166086
-9.70314e-05
0.000131589
1.79872e-05
7.66082e-05
-1.43343e-05
-6.58324e-05
-0.000138908
-4.77282e-05
3.49344e-05
-0.000150238
5.81373e-05
-1.96996e-05
0.000150818
0.000266565
2.69917e-05
-9.50246e-05
-5.01382e-05
9.54575e-05
-0.000260714
0.000108417
1.14306e-05
0.00011416
0.000141578
-5.11446e-05
-4.51307e-05
9.76409e-05
-0.000223145
-0.000164326
-0.000102044
5.84545e-05
6.12325e-05
-4.16273e-05
4.29652e-05
2.88967e-05
-2.71562e-06
-0.000136187
-0.000166601
-4.30783e-05
-0.000104956
6.59605e-05
4.34904e-05
7.99582e-05
-7.22974e-06
-0.000182527
1.61506e-05
9.63125e-05
0.000102689
6.96653e-06
-0.000100109
0.000103829
8.62125e-06
-3.2048e-05
-9.39389e-05
1.37652e-05
-0.000101763
-0.000201507
-0.000131812
2.14285e-05
-7.76197e-05
-4.30134e-05
-0.00025891
-5.39726e-05
0.000132935
0.000407656
1.22226e-05
-6.91863e-05
0.000126611
8.59099e-05
8.23602e-05
-0.000129028
-0.000107254
-0.000134987
2.80261e-05
0.000110691
0.000136364
-4.7827e-05
4.11663e-05
-0.000186914
0.000240711
8.63554e-05
8.87553e-05
-5.39861e-05
6.76214e-05
-9.75328e-06
0.000133399
0.000160881
-0.000122976
-9.17335e-05
-9.61003e-05
0.000125332
5.67263e-05
-2.68489e-06
-9.06538e-05
3.74655e-05
9.23268e-05
-0.000158912
2.18801e-05
-5.83944e-05
9.43685e-05
9.66354e-05
0.000218239
-5.8737e-05
-0.000107725
-1.62479e-05
-8.1089e-05
-0.000119192
2.261e-05
0.00021276
0.000115194
0.000181016
-0.000284315
-4.06207e-05
2.04078e-05
2.59511e-05
-0.000100621
0.000136975
-4.87057e-05
9.02188e-05
-4.77213e-05
3.0427e-05
0.000270294
0.000105878
8.62832e-05
8.44833e-05
-6.72734e-05
-0.000323556
0.000104793
0.000289838
-5.43427e-06
8.22621e-05
-7.59744e-05
3.31041e-05
0.000125176
-8.38095e-05
-0.000170849
-7.91389e-05
-0.000133502
5.95488e-05
-9.93415e-05
0.000106493
2.88945e-05
3.27586e-05
-0.000132511
-0.000112558
0.000111439
-9.09672e-05
0.00011575
6.21878e-05
-8.93803e-05
-3.38337e-05
-8.21897e-05
0.000106533
0.000235467
2.02875e-05
0.000102418
4.46551e-05
-0.000180224
-0.000124231
-0.000260854
-9.77678e-05
-5.11267e-05
0.000204073
0.000106037
-7.19749e-05
3.21184e-05
-6.61421e-05
0.000108207
0.000118244
-6.3511e-05
-0.00026838
-0.000138757
3.39372e-05
-7.44192e-05
3.95798e-05
-4.45894e-06
9.17641e-05
-2.67983e-05
-5.10283e-05
-7.18285e-05
7.65914e-05
0.000120544
0.000109631
-0.000189951
0.000173283
0.000237574
-0.000139703
-0.000114782
-0.000152351
-7.16337e-05
-5.55557e-06
3.4509e-05
-3.2693e-05
-3.72382e-05
4.01959e-05
-4.03342e-05
8.30751e-05
2.26628e-05
0.000140714
0.000328633
0.000105691
2.16712e-05
3.692e-06
7.46417e-05
-0.000253063
-0.00023084
0.000185592
-0.000120857
6.50357e-05
0.000146062
5.03296e-05
-8.17701e-05
-3.24621e-05
-8.2562e-05
0.000151458
2.70975e-05
3.40698e-05
6.09891e-05
5.10078e-05
0.000107272
-3.06293e-05
3.31011e-05
-0.000135801
-0.000133783
-0.000306483
-0.000217501
-8.44458e-05
0.000103757
0.00017343
8.34632e-05
-5.10295e-05
-1.19659e-05
1.64751e-06
-4.74106e-05
-0.000197872
2.5731e-05
2.51248e-05
0.000251047
8.58254e-05
-0.000103863
-1.30176e-05
0.000195055
7.24746e-05
-2.05322e-05
-0.000109313
-9.81924e-05
-2.95482e-05
-2.44575e-05
0.00020928
-8.27621e-05
3.37191e-05
9.01544e-05
9.22242e-06
-7.34418e-06
7.06087e-05
-0.000185396
-0.000154214
-6.54266e-05
-2.67543e-05
-4.85491e-05
9.11609e-05
-0.000103585
1.95371e-05
-0.000305982
-5.54624e-05
3.94019e-06
-2.98216e-05
8.14711e-05
2.53005e-05
0.000202627
0.000256348
-0.000157256
1.92347e-05
0.000165028
1.15854e-05
-0.000304286
0.000181672
-0.000245203
5.18913e-05
-2.40646e-05
6.71498e-05
-4.64278e-05
8.48765e-05
-2.05929e-05
2.45455e-05
8.60613e-05
-6.73799e-05
1.83099e-05
-5.99939e-05
5.73643e-05
-3.48759e-05
4.70369e-05
9.46956e-05
6.42488e-05
0.000159635
7.79486e-05
-3.12086e-06
4.77813e-05
-9.6129e-05
-8.33292e-05
-0.000218079
1.63487e-05
-0.000356958
-0.000394178
-0.000133332
-0.000170154
8.03251e-05
1.62006e-05
4.86111e-05
0.000158513
0.000192995
-0.000109493
-5.99349e-05
-0.000181136
-0.00022644
0.000136601
-5.86105e-06
-8.14034e-05
-4.61475e-05
-0.000173217
9.8503e-05
-9.07248e-06
-5.30784e-06
-2.22467e-05
0.000334078
0.000184785
5.66011e-06
-3.00887e-05
-3.83308e-05
-2.57392e-05
4.42057e-05
-4.13604e-05
-2.13862e-05
4.11214e-05
-1.20612e-05
-4.56071e-05
-3.21686e-05
6.96756e-05
-6.7472e-06
0.000139211
7.5303e-05
-5.92978e-05
-5.72769e-05
-3.79793e-06
0.000105071
-0.000155314
2.72108e-05
-0.000203524
-4.34115e-05
0.000116871
-4.79704e-05
7.54375e-05
-1.29875e-05
9.37246e-05
-5.57255e-05
-7.18378e-05
2.29196e-05
-8.01519e-06
-0.000234732
-7.84954e-06
0.000118283
3.9821e-05
-9.96677e-05
2.40199e-05
-0.000135507
-7.86933e-05
-5.24432e-05
-5.85201e-05
-3.41289e-05
9.52217e-05
7.57597e-05
-2.00855e-05
-6.11809e-05
-1.12427e-05
2.23769e-05
-4.80587e-05
4.03108e-05
-0.000201669
-0.000207037
-0.000275576
-2.39547e-05
6.06558e-05
3.99111e-05
0.000141152
0.000222543
-2.84483e-05
-6.22682e-06
0.000130247
1.5988e-05
4.26958e-05
-1.1499e-05
2.02213e-05
-0.000117485
2.81573e-05
-3.40416e-05
3.49663e-05
-0.000172333
-0.000184184
-7.82888e-05
-0.000126652
0.000138941
5.78817e-05
9.04126e-05
4.67387e-05
0.000142334
-7.73608e-05
-8.02884e-05
-6.24002e-05
-7.69545e-05
0.000185068
-0.000170548
-9.30588e-05
-0.000133499
-0.000178421
5.16963e-05
8.31939e-06
7.91478e-05
0.000184229
1.79742e-05
-0.00026329
-0.000195661
-7.5826e-06
0.000164635
7.8443e-05
-7.68318e-06
-0.000123651
2.60539e-05
3.73065e-05
-5.17883e-05
-0.000114293
-2.3385e-05
0.00012479
2.56882e-05
-0.000208725
-6.77051e-05
-0.000200829
-3.10082e-05
-0.000185959
5.35233e-05
-6.30252e-05
0.000147209
-0.000103511
7.34413e-05
6.63502e-05
1.44525e-05
6.05279e-05
-3.66201e-05
4.69612e-05
-1.75701e-05
-0.000164089
6.8403e-05
3.15136e-05
3.78725e-05
0.000116258
-0.000139459
-1.00753e-05
0.000121047
4.01455e-05
-8.82219e-06
3.21702e-06
-2.26416e-06
0.000116134
8.82577e-05
2.42109e-06
-5.60837e-05
-1.61461e-05
-0.00028209
-9.73667e-05
5.92903e-06
-0.000106321
-0.000144252
-8.06907e-05
-5.23773e-05
0.000177934
3.51002e-05
-3.15402e-05
-7.99586e-05
-2.4738e-05
-0.000224948
0.000117913
7.82352e-05
-6.96515e-05
8.74685e-05
0.000101847
-5.38367e-05
0.000120563
-3.12309e-05
0.000192508
0.000321148
2.47718e-05
-5.77697e-05
3.2069e-05
8.44402e-05
-0.000195717
-1.98859e-05
-0.0001531
-0.000150359
-5.71887e-05
-0.000137412
-0.000112021
0.000139527
3.9791e-05
-3.88639e-05
1.85997e-06
-8.92621e-05
-9.70371e-05
9.10005e-05
8.93681e-05
-9.98294e-05
-0.000174619
-0.00018688
-0.000142917
9.15184e-05
-4.97347e-05
-7.93802e-05
-5.97509e-05
0.00011417
0.000139378
0.000107281
5.02144e-05
6.55595e-05
0.000187042
-2.50803e-05
-8.78865e-05
-0.00020576
-3.09679e-05
0.000190136
3.77714e-05
-6.81059e-05
8.13655e-05
6.56545e-05
-3.61498e-05
0.000138637
-5.94747e-05
8.05845e-05
0.000126885
-1.88359e-05
-0.000169687
6.72542e-05
1.86195e-06
-0.000152946
-0.000215737
-7.03917e-06
3.20591e-05
-5.53764e-05
0.00021793
0.000222814
7.03847e-06
5.87321e-05
0.000144782
6.81614e-05
0.000112818
0.00026547
-7.11642e-05
-0.000144753
-1.31032e-05
0.00023957
1.28222e-05
-0.000302211
-0.000376961
2.58368e-05
-2.30572e-05
-0.000127901
0.000105894
0.000119914
0.000170871
8.74837e-05
-0.000102021
-0.000169839
2.98521e-05
-4.20053e-05
5.15175e-05
0.000144375
-4.14348e-05
0.000163416
-8.55977e-05
-0.000130577
-9.70019e-06
-0.000108068
2.08637e-05
0.000176886
0.000126661
9.89157e-05
-5.87802e-05
0.00013619
1.24795e-05
-7.67832e-05
-0.000198372
-0.00033151
-0.000230947
0.00011184
-6.04927e-05
4.75566e-05
-0.000105585
-0.000173201
-4.05044e-06
7.28946e-06
-6.07381e-05
4.46569e-06
-8.41554e-05
2.83319e-05
9.07293e-05
-0.000151604
-0.000390229
-0.000114768
0.000199037
-9.75549e-06
0.000253174
0.000298947
0.000272523
0.000121644
-5.59287e-05
-0.000225993
-0.000159803
-0.000111596
-5.4792e-06
7.29013e-05
0.000191163
0.00010577
-5.03666e-05
0.000206144
-5.8066e-05
-9.47436e-05
-9.17519e-05
-8.66085e-05
-8.23979e-05
-2.22357e-05
-0.000132139
-8.27344e-05
-1.83863e-05
-4.4802e-05
-0.000121352
-6.23871e-05
1.64625e-05
-8.75914e-05
-5.00598e-05
0.000180217
0.000179145
0.000217222
0.000154417
9.38065e-05
-3.37063e-05
-0.000151559
6.54542e-05
7.65136e-05
-3.3502e-06
5.78118e-06
2.49199e-06
0.000114102
8.03196e-05
8.36105e-05
-0.000152103
-4.79748e-06
-0.000203042
-6.62296e-05
5.37003e-05
-0.000113369
-0.000154436
-0.000155083
3.4736e-05
-8.95967e-06
-3.21509e-05
-1.47289e-06
-0.000153575
8.32033e-05
0.000148413
0.000166563
-0.000124232
-7.22054e-05
-0.000239221
7.67056e-05
0.000144356
0.00010696
0.000127835
-9.00904e-05
-9.72804e-05
-0.00011181
-7.95557e-05
5.8988e-05
-0.000140854
8.11482e-05
4.01959e-06
0.000280924
0.000168806
9.18985e-05
-4.87509e-05
0.000153067
0.000299522
2.40267e-05
-3.66841e-05
-5.21728e-05
2.86743e-05
0.000180018
-9.99193e-07
-0.000150071
-0.000155107
2.23515e-05
-0.000106701
3.83265e-05
3.52864e-05
-4.05438e-05
-0.000246839
-2.73035e-05
-0.00017508
0.000125677
0.000100488
8.23962e-05
5.25665e-05
9.01544e-06
-5.5399e-05
-9.7556e-05
-0.000124627
-8.73877e-05
-4.99334e-05
6.48935e-05
1.67438e-05
0.000254259
0.000297438
0.000224923
1.59943e-05
-0.000132139
-0.000215526
-7.97409e-05
5.38803e-05
9.59799e-05
0.00010472
-0.000109388
-0.000106713
-8.43909e-05
0.000208239
0.000135627
-2.85201e-05
-0.000129308
-0.00022995
6.83012e-05
6.49688e-05
6.32724e-05
6.12156e-05
-2.67999e-05
-9.52339e-05
-5.73854e-05
9.10636e-05
-0.00010426
2.17208e-05
-0.000156706
0.000240904
0.000111153
6.4184e-05
3.87252e-05
2.00539e-05
6.56461e-05
-2.28971e-05
5.37785e-05
-0.000149267
-0.000102528
-3.72133e-06
-1.36523e-05
2.78597e-05
9.30933e-05
1.01918e-05
-0.00021142
-0.000106796
-0.000263135
-3.11302e-05
-0.000180054
-0.000173065
-0.000160841
0.000263418
0.000297652
0.000102957
0.000120191
-2.70704e-05
0.000186488
5.72384e-05
2.10295e-05
0.000160197
-0.000120948
-0.000175807
-0.000146041
0.000188397
-9.28727e-06
-8.91212e-05
-0.000126463
1.90544e-05
-0.000265798
-0.000167362
-0.000133206
7.93361e-05
-3.36848e-06
0.000117259
8.11728e-05
8.23442e-05
-0.000161748
-7.54968e-05
6.85912e-05
-4.53971e-05
0.000157336
-1.63079e-05
2.46371e-05
-9.08697e-05
0.00013646
0.000162352
-6.30827e-05
-0.000134337
-0.000130544
0.000215235
3.99342e-05
0.000177992
-1.10129e-06
-0.000205974
0.000116874
9.81307e-05
0.000153045
3.19347e-05
-0.000146832
0.000101572
9.41867e-05
8.06382e-05
-0.000167934
0.000149992
-8.56386e-06
0.000209579
9.06544e-05
2.87234e-05
-7.5209e-06
-3.90175e-05
-0.000178413
-0.000108223
0.000126868
9.07585e-05
0.000164207
9.72908e-05
-4.29554e-05
-0.000174372
-0.000127506
0.000167123
8.31292e-05
0.000104436
-9.29506e-05
-5.703e-05
3.17707e-05
-6.39806e-05
0.00024186
8.58379e-05
-0.000137953
2.4097e-05
-0.000343901
-0.000221858
-0.000119143
2.21259e-06
-0.000233864
0.000102873
0.000122452
1.4141e-06
0.000140011
0.00025597
5.81818e-05
8.99227e-06
-8.52637e-06
-9.01581e-05
2.88197e-05
-9.85264e-05
1.12711e-05
0.000196192
0.000192665
5.94427e-05
0.000101449
5.40605e-05
0.000186407
-1.89436e-05
0.000312054
0.000187057
2.25443e-05
-0.000143506
-3.93174e-05
-5.86386e-05
-2.38767e-05
-1.07721e-05
-0.000263382
-1.84447e-05
0.000194452
9.71128e-05
-5.72763e-08
-0.000102275
-9.20787e-05
-0.000250706
-0.000309612
9.48295e-05
6.88605e-05
-5.18085e-05
-3.71359e-05
-1.54052e-06
-0.00013953
-0.000341967
-3.34892e-06
0.00021119
0.00011789
1.14521e-05
3.06228e-05
-4.19156e-05
0.000125798
-0.000160971
0.000254618
-4.10232e-05
8.9417e-05
0.00032835
0.000129372
-6.30965e-05
0.000317164
-3.15765e-05
-7.65065e-05
0.000219174
2.72505e-05
-0.000161751
-2.50755e-05
-0.000143421
8.63966e-05
-1.30176e-05
0.000237631
6.73891e-05
8.67286e-05
7.70774e-05
2.84965e-05
0.000250239
2.38139e-06
3.88545e-05
0.00018687
0.000133558
0.000123374
0.000100271
1.97834e-05
-8.65094e-05
7.89524e-05
6.33941e-05
-0.000154261
-0.00014016
7.10005e-05
-6.79897e-05
0.000203211
0.000277386
8.51271e-05
-0.000133269
0.000180443
5.97844e-05
3.69694e-05
1.55253e-05
-9.29312e-05
5.11555e-05
-3.40273e-05
-8.74443e-05
-2.17252e-05
-0.000347871
-0.000158366
-6.16423e-05
-3.67758e-05
-4.39073e-05
-1.5419e-05
-0.000150522
2.41725e-06
-0.000334166
-7.09842e-05
4.62448e-06
0.000200529
3.29706e-05
0.000168703
8.18229e-05
0.000120856
-0.000143872
-0.000239154
4.39828e-05
0.000104558
-0.000145822
7.58693e-05
3.34578e-07
-0.000307997
-3.18991e-05
4.99933e-05
0.000253096
0.000142343
3.7918e-05
-2.83881e-05
-4.72269e-05
-7.20052e-05
-7.06338e-06
0.000376972
3.48405e-05
-1.87126e-05
-1.83003e-05
8.89974e-05
8.05819e-05
0.000167303
-0.000206671
0.00022554
0.000191411
-5.03518e-05
-6.65032e-05
-0.000164294
-0.00012533
-6.66343e-05
4.32668e-05
5.99439e-05
-5.37338e-05
0.00010925
0.000182238
0.000291352
-1.21724e-05
-0.00018017
-0.000119437
-1.29017e-05
6.09912e-05
0.000226601