# vtk DataFile Version 1.0
Electron Density - Current Sheet 
ASCII
DATASET STRUCTURED_POINTS
DIMENSIONS 256 128 1
ORIGIN 0 0 0
SPACING 0.15625 0.15625 1
POINT_DATA 32768
SCALARS rhoe float
LOOKUP_TABLE default
-1.79929e-18
-1.73326e-18
-1.81246e-18
-1.75488e-18
-1.66212e-18
-1.79245e-18
-1.83088e-18
-1.72369e-18
-1.6748e-18
-1.66546e-18
-1.81662e-18
-1.82347e-18
-1.77677e-18
-1.87918e-18
-1.70347e-18
-1.9362e-18
-2.10261e-18
-1.78938e-18
-1.86551e-18
-2.18139e-18
-1.90144e-18
-1.83606e-18
-1.8868e-18
-2.12842e-18
-1.82806e-18
-1.71819e-18
-1.67181e-18
-1.52734e-18
-1.90143e-18
-1.88362e-18
-1.90413e-18
-1.69435e-18
-1.71153e-18
-1.972e-18
-2.06849e-18
-1.75246e-18
-1.72727e-18
-1.91927e-18
-1.76718e-18
-1.82001e-18
-2.02783e-18
-1.82594e-18
-1.7268e-18
-1.74285e-18
-1.5606e-18
-1.71475e-18
-1.76131e-18
-1.91594e-18
-1.84285e-18
-1.98726e-18
-1.93421e-18
-1.99876e-18
-1.74793e-18
-1.68552e-18
-1.68653e-18
-1.88516e-18
-1.80879e-18
-1.63958e-18
-1.65024e-18
-1.84561e-18
-1.54818e-18
-1.78286e-18
-2.10666e-18
-1.78107e-18
-1.66715e-18
-1.54903e-18
-1.6275e-18
-1.68187e-18
-1.92495e-18
-1.86125e-18
-1.67369e-18
-1.88302e-18
-1.73664e-18
-1.98542e-18
-1.85696e-18
-1.60829e-18
-1.56491e-18
-1.72816e-18
-1.66361e-18
-2.03531e-18
-2.10211e-18
-1.73612e-18
-1.92639e-18
-1.76388e-18
-1.72858e-18
-1.77834e-18
-1.83668e-18
-1.79075e-18
-1.65662e-18
-1.83987e-18
-1.83998e-18
-1.91677e-18
-1.97582e-18
-1.84025e-18
-1.70403e-18
-1.84799e-18
-1.72256e-18
-1.68445e-18
-1.72341e-18
-1.86124e-18
-1.7436e-18
-1.77828e-18
-1.75684e-18
-1.65974e-18
-1.83777e-18
-2.06484e-18
-1.79383e-18
-1.75938e-18
-1.97555e-18
-1.99089e-18
-1.66475e-18
-1.74652e-18
-1.83996e-18
-1.73127e-18
-1.84281e-18
-1.86701e-18
-1.55529e-18
-2.02316e-18
-1.81335e-18
-1.89658e-18
-2.09872e-18
-1.70674e-18
-1.90976e-18
-1.76449e-18
-2.16719e-18
-1.72697e-18
-1.64191e-18
-1.91845e-18
-1.69294e-18
-1.72855e-18
-1.60203e-18
-1.84703e-18
-1.81371e-18
-1.98919e-18
-2.02306e-18
-1.54822e-18
-1.9356e-18
-2.01463e-18
-1.76913e-18
-1.84063e-18
-1.65085e-18
-1.73995e-18
-1.77839e-18
-1.63862e-18
-1.58692e-18
-1.79992e-18
-1.69723e-18
-1.86865e-18
-1.76836e-18
-1.99442e-18
-1.97466e-18
-1.97063e-18
-1.79692e-18
-1.70968e-18
-2.14483e-18
-1.85759e-18
-1.71102e-18
-1.82853e-18
-1.86089e-18
-1.88254e-18
-1.91248e-18
-1.77155e-18
-1.8315e-18
-1.87266e-18
-1.89356e-18
-1.84998e-18
-1.93783e-18
-1.75032e-18
-1.84212e-18
-1.69865e-18
-1.76509e-18
-1.81418e-18
-1.68899e-18
-1.93275e-18
-2.2687e-18
-1.4258e-18
-1.80191e-18
-1.98913e-18
-1.83983e-18
-1.94391e-18
-1.76213e-18
-2.03909e-18
-1.92465e-18
-1.97376e-18
-1.60621e-18
-1.72272e-18
-1.86058e-18
-1.64647e-18
-1.79585e-18
-1.81829e-18
-1.8195e-18
-1.90993e-18
-1.5032e-18
-1.56593e-18
-1.80592e-18
-1.68332e-18
-1.48259e-18
-1.80612e-18
-1.95659e-18
-1.93775e-18
-1.75797e-18
-1.94951e-18
-1.70848e-18
-2.03113e-18
-1.63812e-18
-1.67868e-18
-1.71946e-18
-1.80174e-18
-1.81158e-18
-1.75783e-18
-1.58214e-18
-1.82799e-18
-1.55677e-18
-1.84223e-18
-1.78992e-18
-1.7072e-18
-1.93585e-18
-1.89051e-18
-2.14079e-18
-1.77711e-18
-1.69623e-18
-1.88669e-18
-1.81516e-18
-1.9273e-18
-2.00008e-18
-1.86585e-18
-1.80873e-18
-1.71015e-18
-1.72743e-18
-1.74509e-18
-1.89809e-18
-1.62492e-18
-1.79198e-18
-1.7759e-18
-1.99735e-18
-1.79051e-18
-1.68053e-18
-1.77884e-18
-1.86951e-18
-1.97255e-18
-1.64387e-18
-1.75528e-18
-1.56866e-18
-1.99726e-18
-2.05829e-18
-1.6183e-18
-1.84432e-18
-1.93462e-18
-1.96385e-18
-1.92e-18
-1.6669e-18
-1.56837e-18
-1.66636e-18
-1.75259e-18
-1.74969e-18
-2.14185e-18
-3.09403e-18
-2.79425e-18
-2.62545e-18
-2.7109e-18
-2.74007e-18
-2.93654e-18
-2.95154e-18
-2.75176e-18
-2.74171e-18
-2.76508e-18
-3.04482e-18
-2.83898e-18
-2.65232e-18
-2.82397e-18
-2.71706e-18
-3.01609e-18
-2.99067e-18
-2.78915e-18
-2.69333e-18
-2.89244e-18
-2.7062e-18
-2.71878e-18
-2.96737e-18
-2.90677e-18
-2.57186e-18
-2.57693e-18
-2.69315e-18
-2.65747e-18
-3.01515e-18
-2.96723e-18
-2.85796e-18
-3.17825e-18
-2.7271e-18
-2.64458e-18
-3.08665e-18
-2.77318e-18
-3.06785e-18
-2.88672e-18
-3.01723e-18
-2.88291e-18
-2.88456e-18
-2.5121e-18
-2.94148e-18
-2.93577e-18
-2.56603e-18
-2.88733e-18
-2.955e-18
-2.832e-18
-2.56553e-18
-2.87268e-18
-2.90905e-18
-2.76227e-18
-2.89005e-18
-2.74901e-18
-2.74633e-18
-2.84105e-18
-2.7511e-18
-2.8061e-18
-2.93038e-18
-2.93662e-18
-2.74081e-18
-3.07136e-18
-2.81903e-18
-2.90978e-18
-2.90303e-18
-2.68747e-18
-2.64566e-18
-2.81581e-18
-3.0591e-18
-2.81956e-18
-2.79402e-18
-2.89082e-18
-2.97593e-18
-2.80408e-18
-2.81941e-18
-2.71076e-18
-2.61397e-18
-2.95201e-18
-2.71426e-18
-2.77223e-18
-2.76414e-18
-2.67369e-18
-2.86689e-18
-2.76303e-18
-2.9058e-18
-2.94616e-18
-2.94869e-18
-2.92773e-18
-2.93993e-18
-2.92667e-18
-2.73642e-18
-2.86001e-18
-2.80937e-18
-2.91473e-18
-2.90536e-18
-2.80169e-18
-2.76583e-18
-2.71476e-18
-2.57926e-18
-2.66558e-18
-3.12268e-18
-3.08497e-18
-2.98979e-18
-2.67913e-18
-2.7688e-18
-2.94603e-18
-2.89841e-18
-2.78324e-18
-2.8763e-18
-2.83067e-18
-2.69911e-18
-2.97445e-18
-2.69717e-18
-2.41519e-18
-2.50227e-18
-3.03069e-18
-3.17646e-18
-2.94602e-18
-2.89448e-18
-2.70389e-18
-2.92929e-18
-2.92531e-18
-3.17073e-18
-2.9246e-18
-3.29234e-18
-2.88349e-18
-2.68033e-18
-2.9532e-18
-2.59059e-18
-2.83297e-18
-2.7141e-18
-2.82788e-18
-2.78333e-18
-3.08096e-18
-3.11918e-18
-2.63083e-18
-3.03613e-18
-2.58469e-18
-2.75668e-18
-2.84126e-18
-2.37392e-18
-3.0378e-18
-2.7015e-18
-2.83565e-18
-2.68576e-18
-3.24455e-18
-2.97982e-18
-2.82421e-18
-2.84044e-18
-2.89229e-18
-2.86307e-18
-2.64763e-18
-2.6797e-18
-2.82638e-18
-3.07452e-18
-3.11925e-18
-3.09775e-18
-2.96475e-18
-3.09432e-18
-3.02556e-18
-2.73587e-18
-2.64448e-18
-2.83666e-18
-2.89268e-18
-2.8033e-18
-2.69405e-18
-3.03245e-18
-2.74198e-18
-2.71958e-18
-3.0338e-18
-2.93109e-18
-2.81554e-18
-2.69148e-18
-3.03668e-18
-2.98902e-18
-2.47803e-18
-2.85019e-18
-2.87831e-18
-2.92686e-18
-2.61046e-18
-2.75893e-18
-2.95043e-18
-3.03823e-18
-2.73165e-18
-2.42599e-18
-2.75954e-18
-2.7416e-18
-2.4942e-18
-2.65886e-18
-2.62367e-18
-3.03342e-18
-2.8474e-18
-2.71368e-18
-2.7872e-18
-2.84506e-18
-2.92181e-18
-2.95025e-18
-2.91656e-18
-2.96303e-18
-2.6923e-18
-2.63819e-18
-3.07069e-18
-2.73199e-18
-3.17128e-18
-2.85338e-18
-2.99029e-18
-2.97966e-18
-2.82786e-18
-3.15893e-18
-2.94914e-18
-2.98156e-18
-2.92674e-18
-2.41915e-18
-2.96706e-18
-2.90969e-18
-3.13413e-18
-2.90445e-18
-2.84411e-18
-2.92814e-18
-2.69425e-18
-2.76736e-18
-2.52328e-18
-2.67619e-18
-3.10969e-18
-3.13683e-18
-2.60219e-18
-2.73058e-18
-2.77308e-18
-2.95305e-18
-2.68328e-18
-2.8989e-18
-2.51241e-18
-2.58537e-18
-2.82554e-18
-3.07171e-18
-2.86024e-18
-2.93155e-18
-2.61585e-18
-2.87953e-18
-3.1428e-18
-2.93015e-18
-2.78202e-18
-2.55098e-18
-2.78847e-18
-2.83974e-18
-2.51603e-18
-2.74282e-18
-2.63924e-18
-2.72927e-18
-3.15433e-18
-3.05153e-18
-2.88531e-18
-2.74351e-18
-3.05008e-18
-3.12373e-18
-3.19208e-18
-4.96351e-18
-4.79099e-18
-5.36575e-18
-5.43366e-18
-5.19911e-18
-5.29357e-18
-5.23322e-18
-5.2732e-18
-5.10565e-18
-5.33202e-18
-4.76893e-18
-5.08626e-18
-5.66511e-18
-5.46812e-18
-6.0922e-18
-5.1675e-18
-5.36606e-18
-5.11755e-18
-4.39562e-18
-5.02823e-18
-5.10591e-18
-5.32245e-18
-5.17185e-18
-4.73358e-18
-5.15224e-18
-4.97796e-18
-5.19959e-18
-5.25034e-18
-4.93252e-18
-4.67531e-18
-4.93883e-18
-5.18774e-18
-5.2044e-18
-5.67049e-18
-4.86771e-18
-5.30672e-18
-5.19618e-18
-4.83172e-18
-5.34458e-18
-4.84355e-18
-5.48837e-18
-5.21082e-18
-4.86996e-18
-5.2596e-18
-5.68769e-18
-5.51313e-18
-5.11117e-18
-4.99748e-18
-5.12038e-18
-5.23316e-18
-4.66653e-18
-5.38369e-18
-5.37031e-18
-4.95991e-18
-5.19212e-18
-5.1085e-18
-4.84304e-18
-5.72337e-18
-5.61931e-18
-4.98028e-18
-5.17764e-18
-5.32219e-18
-5.30927e-18
-5.2631e-18
-5.0702e-18
-4.8931e-18
-5.2192e-18
-5.39416e-18
-5.62281e-18
-5.08898e-18
-4.79094e-18
-4.47189e-18
-5.3508e-18
-5.06828e-18
-5.43997e-18
-5.25524e-18
-4.50557e-18
-5.92957e-18
-5.588e-18
-5.4502e-18
-5.33051e-18
-5.04111e-18
-5.29896e-18
-5.11801e-18
-4.6409e-18
-4.94537e-18
-4.93858e-18
-5.46594e-18
-5.45652e-18
-5.11462e-18
-4.79523e-18
-5.16348e-18
-5.30973e-18
-5.06812e-18
-5.37245e-18
-5.45731e-18
-4.72459e-18
-4.92811e-18
-4.58844e-18
-4.72383e-18
-4.92785e-18
-5.19299e-18
-4.98873e-18
-4.77678e-18
-4.64869e-18
-5.13e-18
-5.16076e-18
-5.2726e-18
-4.72922e-18
-5.21103e-18
-5.8231e-18
-5.76008e-18
-5.08983e-18
-4.81867e-18
-4.65975e-18
-5.39324e-18
-5.1606e-18
-5.26473e-18
-4.95062e-18
-4.89954e-18
-5.72026e-18
-5.62262e-18
-5.05533e-18
-4.87236e-18
-5.21955e-18
-5.37245e-18
-5.15057e-18
-5.23994e-18
-5.27628e-18
-5.24639e-18
-5.57723e-18
-4.7169e-18
-5.01548e-18
-4.94079e-18
-5.0117e-18
-5.00329e-18
-5.03753e-18
-5.13589e-18
-5.28066e-18
-5.26524e-18
-4.81149e-18
-5.59352e-18
-5.29883e-18
-5.09438e-18
-5.29233e-18
-5.23035e-18
-4.6286e-18
-5.00353e-18
-4.93261e-18
-5.1053e-18
-4.95367e-18
-5.20169e-18
-5.27198e-18
-4.49736e-18
-4.65238e-18
-4.70263e-18
-5.30317e-18
-5.02959e-18
-5.72501e-18
-5.11466e-18
-5.2729e-18
-5.45103e-18
-5.30387e-18
-4.98628e-18
-5.16675e-18
-5.26926e-18
-4.78774e-18
-4.77564e-18
-5.00753e-18
-5.57991e-18
-5.03747e-18
-5.36627e-18
-5.26665e-18
-5.12402e-18
-4.98286e-18
-4.56786e-18
-5.1412e-18
-5.42849e-18
-5.58195e-18
-4.97471e-18
-5.00505e-18
-5.16817e-18
-5.42212e-18
-5.21574e-18
-5.16518e-18
-5.76178e-18
-5.45358e-18
-4.69283e-18
-5.21622e-18
-4.87893e-18
-5.56784e-18
-5.13617e-18
-5.09747e-18
-5.76628e-18
-5.13518e-18
-5.22559e-18
-4.96967e-18
-5.45751e-18
-5.41615e-18
-5.00783e-18
-4.81445e-18
-5.52635e-18
-5.39038e-18
-5.24296e-18
-5.29127e-18
-5.13567e-18
-5.10296e-18
-4.78845e-18
-5.34919e-18
-5.11036e-18
-5.44555e-18
-5.26869e-18
-4.78072e-18
-4.9576e-18
-4.91251e-18
-5.39016e-18
-4.95737e-18
-5.08309e-18
-4.86047e-18
-4.85834e-18
-4.93696e-18
-4.89921e-18
-5.45924e-18
-5.32539e-18
-5.19169e-18
-5.31161e-18
-5.53141e-18
-5.871e-18
-5.58842e-18
-5.32768e-18
-5.1529e-18
-4.93339e-18
-5.27348e-18
-5.49701e-18
-5.20106e-18
-4.65911e-18
-4.99412e-18
-5.592e-18
-5.4729e-18
-5.41102e-18
-5.70859e-18
-5.33053e-18
-5.06864e-18
-5.48032e-18
-5.0916e-18
-5.246e-18
-5.52656e-18
-5.24683e-18
-4.5454e-18
-5.12422e-18
-5.20764e-18
-5.27213e-18
-5.44169e-18
-5.10057e-18
-5.55076e-18
-5.83805e-18
-9.36842e-18
-9.72102e-18
-9.08268e-18
-9.63363e-18
-9.4424e-18
-1.01504e-17
-9.72847e-18
-9.66539e-18
-9.87853e-18
-8.6664e-18
-9.33124e-18
-1.01102e-17
-9.66924e-18
-9.81463e-18
-9.73633e-18
-1.01519e-17
-9.04266e-18
-9.26566e-18
-8.88142e-18
-1.06961e-17
-1.09151e-17
-1.02072e-17
-9.80104e-18
-9.14043e-18
-9.33781e-18
-9.26937e-18
-1.07246e-17
-1.07448e-17
-9.0687e-18
-8.97087e-18
-1.06939e-17
-1.0166e-17
-9.92743e-18
-9.43354e-18
-1.00301e-17
-9.61936e-18
-9.11331e-18
-9.20972e-18
-9.73628e-18
-1.05292e-17
-9.64845e-18
-9.50366e-18
-9.80772e-18
-9.85807e-18
-1.01098e-17
-9.99158e-18
-1.07488e-17
-9.60023e-18
-8.60839e-18
-1.08511e-17
-8.99486e-18
-9.70468e-18
-1.03961e-17
-9.93577e-18
-9.63612e-18
-9.6791e-18
-9.84523e-18
-9.32832e-18
-9.78345e-18
-9.12779e-18
-9.44914e-18
-9.21635e-18
-9.99645e-18
-1.02342e-17
-9.18614e-18
-9.342e-18
-9.44081e-18
-9.90314e-18
-9.135e-18
-1.01193e-17
-1.0244e-17
-9.22384e-18
-9.79177e-18
-9.10625e-18
-9.4734e-18
-9.55972e-18
-9.52241e-18
-1.01041e-17
-1.09959e-17
-1.02407e-17
-9.61855e-18
-9.22442e-18
-8.81936e-18
-9.7782e-18
-9.53865e-18
-9.22336e-18
-9.80379e-18
-9.16327e-18
-1.00905e-17
-9.67971e-18
-1.02186e-17
-9.4996e-18
-1.00863e-17
-9.55154e-18
-9.51266e-18
-9.92274e-18
-9.90344e-18
-8.84721e-18
-1.03391e-17
-1.02055e-17
-8.73212e-18
-9.52456e-18
-1.00617e-17
-9.19723e-18
-9.67785e-18
-9.82711e-18
-1.00621e-17
-9.70782e-18
-9.24998e-18
-1.06986e-17
-1.05871e-17
-8.77903e-18
-9.49807e-18
-9.92671e-18
-9.20935e-18
-1.05946e-17
-1.02034e-17
-9.3542e-18
-9.55714e-18
-1.01363e-17
-1.11628e-17
-8.51698e-18
-9.403e-18
-9.49336e-18
-9.43634e-18
-9.98437e-18
-9.83823e-18
-9.90957e-18
-8.34655e-18
-9.99277e-18
-9.83133e-18
-9.44734e-18
-1.0465e-17
-1.04372e-17
-8.71076e-18
-9.64117e-18
-1.01838e-17
-9.94853e-18
-1.01057e-17
-1.05691e-17
-9.58082e-18
-9.69321e-18
-9.96455e-18
-8.95269e-18
-8.61328e-18
-9.01605e-18
-9.54228e-18
-1.00151e-17
-9.95012e-18
-9.68985e-18
-9.21609e-18
-9.55299e-18
-9.6025e-18
-9.69919e-18
-9.64121e-18
-8.94459e-18
-1.03074e-17
-9.81419e-18
-1.01161e-17
-8.86637e-18
-1.00536e-17
-9.25799e-18
-9.77825e-18
-9.51511e-18
-1.02692e-17
-9.34663e-18
-9.47945e-18
-1.02204e-17
-1.00637e-17
-1.0865e-17
-9.68403e-18
-1.1088e-17
-9.96186e-18
-9.72748e-18
-8.95509e-18
-8.69517e-18
-9.03492e-18
-9.86701e-18
-1.07672e-17
-9.86253e-18
-9.63607e-18
-1.00347e-17
-9.89917e-18
-1.02305e-17
-9.3991e-18
-9.77332e-18
-9.8177e-18
-9.87321e-18
-1.01247e-17
-9.52235e-18
-1.01168e-17
-9.13041e-18
-9.24817e-18
-9.95878e-18
-9.60867e-18
-9.92086e-18
-9.38463e-18
-1.00889e-17
-1.02504e-17
-9.32492e-18
-9.66103e-18
-1.02709e-17
-9.84643e-18
-9.67157e-18
-1.02388e-17
-9.33854e-18
-9.32206e-18
-9.34877e-18
-9.81601e-18
-1.01804e-17
-1.00263e-17
-9.71467e-18
-9.8158e-18
-9.41736e-18
-9.53392e-18
-1.05863e-17
-1.01758e-17
-8.79159e-18
-8.80898e-18
-1.046e-17
-1.00471e-17
-9.36901e-18
-1.04675e-17
-9.37453e-18
-8.88862e-18
-9.23529e-18
-1.07003e-17
-1.04922e-17
-1.03165e-17
-1.03298e-17
-9.79182e-18
-1.02633e-17
-9.80771e-18
-8.80178e-18
-8.4658e-18
-8.60641e-18
-9.75099e-18
-1.04968e-17
-1.02601e-17
-9.65533e-18
-9.9838e-18
-9.2849e-18
-9.01652e-18
-9.59789e-18
-9.49082e-18
-1.04156e-17
-9.49492e-18
-8.98241e-18
-9.90438e-18
-1.04386e-17
-1.00936e-17
-9.65672e-18
-9.41145e-18
-1.02845e-17
-1.01086e-17
-9.35567e-18
-1.92814e-17
-1.81051e-17
-1.75083e-17
-1.79524e-17
-1.89734e-17
-2.03085e-17
-1.85564e-17
-1.84855e-17
-1.92007e-17
-1.71268e-17
-1.71532e-17
-1.77721e-17
-1.75953e-17
-1.78741e-17
-1.87633e-17
-1.99703e-17
-1.93975e-17
-1.81216e-17
-1.73768e-17
-1.7257e-17
-1.88062e-17
-1.85781e-17
-1.83025e-17
-1.99278e-17
-1.847e-17
-1.82527e-17
-1.8015e-17
-1.95553e-17
-1.7504e-17
-1.73017e-17
-1.92849e-17
-1.99464e-17
-1.79373e-17
-1.63211e-17
-1.84542e-17
-1.94326e-17
-1.95318e-17
-1.6553e-17
-1.65051e-17
-1.70545e-17
-1.64035e-17
-1.79408e-17
-1.83008e-17
-1.78937e-17
-1.96643e-17
-2.04915e-17
-1.8868e-17
-1.68316e-17
-1.80855e-17
-1.77382e-17
-1.67941e-17
-1.72891e-17
-1.87272e-17
-1.83768e-17
-1.83697e-17
-1.81501e-17
-1.91346e-17
-1.63855e-17
-1.88216e-17
-1.80446e-17
-1.83072e-17
-1.76802e-17
-1.80709e-17
-1.86378e-17
-1.80196e-17
-1.82429e-17
-1.92206e-17
-1.69487e-17
-1.88092e-17
-1.86565e-17
-1.83458e-17
-1.77574e-17
-1.6163e-17
-1.94974e-17
-1.69476e-17
-1.79345e-17
-1.94943e-17
-1.92353e-17
-2.00492e-17
-1.68874e-17
-1.67464e-17
-1.75371e-17
-1.9471e-17
-1.95828e-17
-1.94923e-17
-1.86502e-17
-2.00925e-17
-2.06006e-17
-1.93098e-17
-1.72412e-17
-1.90129e-17
-1.74121e-17
-1.91505e-17
-1.79713e-17
-1.66456e-17
-1.91024e-17
-1.78244e-17
-1.73843e-17
-1.85383e-17
-1.8e-17
-1.74246e-17
-1.71226e-17
-1.80358e-17
-1.78134e-17
-1.94943e-17
-2.07053e-17
-1.98318e-17
-1.85705e-17
-1.82999e-17
-1.92875e-17
-1.81391e-17
-1.61509e-17
-1.76824e-17
-1.77591e-17
-1.77047e-17
-1.78738e-17
-1.98738e-17
-1.79885e-17
-1.73921e-17
-1.83859e-17
-1.84711e-17
-1.70581e-17
-1.93148e-17
-1.93052e-17
-1.71809e-17
-1.6166e-17
-1.60455e-17
-1.78058e-17
-1.91605e-17
-1.99982e-17
-1.97067e-17
-1.81361e-17
-1.90463e-17
-1.80345e-17
-1.64522e-17
-1.7651e-17
-1.88271e-17
-1.81349e-17
-1.85451e-17
-1.93494e-17
-1.88027e-17
-1.88017e-17
-1.89641e-17
-1.78721e-17
-1.83278e-17
-1.70006e-17
-1.80467e-17
-1.64441e-17
-1.75509e-17
-1.92905e-17
-1.84571e-17
-2.01395e-17
-1.87671e-17
-2.00291e-17
-1.72787e-17
-1.54708e-17
-1.86333e-17
-1.9747e-17
-1.75247e-17
-1.81247e-17
-1.72863e-17
-1.98734e-17
-1.98359e-17
-1.64372e-17
-1.71968e-17
-1.98105e-17
-1.94139e-17
-1.89869e-17
-1.94199e-17
-1.90691e-17
-1.67756e-17
-1.6864e-17
-1.73339e-17
-1.96676e-17
-1.91399e-17
-1.69152e-17
-1.686e-17
-1.93644e-17
-2.06066e-17
-1.83403e-17
-1.87496e-17
-1.79107e-17
-1.75709e-17
-1.67547e-17
-1.91104e-17
-1.89225e-17
-2.1548e-17
-1.72408e-17
-1.59273e-17
-1.756e-17
-1.80871e-17
-1.70632e-17
-1.67462e-17
-1.65938e-17
-1.73541e-17
-1.85991e-17
-2.19891e-17
-1.75089e-17
-1.85088e-17
-1.85246e-17
-1.46872e-17
-1.91563e-17
-1.98059e-17
-2.02372e-17
-2.03575e-17
-1.86794e-17
-1.83614e-17
-1.89253e-17
-1.76599e-17
-1.67674e-17
-1.77694e-17
-1.7152e-17
-1.81858e-17
-1.85178e-17
-1.94961e-17
-1.95865e-17
-1.74303e-17
-1.65949e-17
-1.75411e-17
-1.94721e-17
-1.87398e-17
-1.84031e-17
-1.85014e-17
-1.8112e-17
-1.59843e-17
-1.72043e-17
-2.0693e-17
-1.71751e-17
-1.77613e-17
-1.78283e-17
-1.83919e-17
-1.86272e-17
-2.01584e-17
-1.74676e-17
-1.69527e-17
-1.84532e-17
-1.83487e-17
-1.71937e-17
-1.89308e-17
-1.88686e-17
-1.67125e-17
-1.76019e-17
-1.94973e-17
-1.84191e-17
-1.95884e-17
-1.6851e-17
-1.76718e-17
-1.83632e-17
-1.92735e-17
-1.85884e-17
-1.68838e-17
-1.70868e-17
-1.74796e-17
-1.87483e-17
-1.93334e-17
-2.0198e-17
-3.42281e-17
-3.35001e-17
-3.73835e-17
-3.35542e-17
-3.24535e-17
-3.47671e-17
-3.5106e-17
-3.63431e-17
-3.61761e-17
-2.96405e-17
-3.00311e-17
-3.27643e-17
-3.23936e-17
-3.22741e-17
-3.22711e-17
-3.44455e-17
-3.68187e-17
-3.41892e-17
-3.39962e-17
-3.30332e-17
-3.56806e-17
-3.46619e-17
-3.40868e-17
-3.19298e-17
-3.41685e-17
-3.26618e-17
-3.21507e-17
-3.50731e-17
-3.78596e-17
-3.70493e-17
-3.5872e-17
-3.46322e-17
-3.13926e-17
-2.90925e-17
-3.39522e-17
-3.40519e-17
-3.40199e-17
-3.61502e-17
-3.52695e-17
-3.28205e-17
-3.30145e-17
-3.52335e-17
-3.41896e-17
-3.30814e-17
-3.19802e-17
-3.24778e-17
-3.41956e-17
-3.23179e-17
-3.66631e-17
-3.56552e-17
-3.23206e-17
-3.38725e-17
-3.70318e-17
-3.05309e-17
-3.10836e-17
-3.21519e-17
-3.54926e-17
-3.48847e-17
-3.34417e-17
-3.28138e-17
-3.6779e-17
-4.02986e-17
-3.29178e-17
-3.36978e-17
-3.4004e-17
-3.31766e-17
-3.31301e-17
-3.32016e-17
-3.47723e-17
-3.22222e-17
-3.18756e-17
-3.43891e-17
-3.11059e-17
-3.49068e-17
-3.56581e-17
-3.67971e-17
-3.40409e-17
-3.9754e-17
-3.55638e-17
-3.44179e-17
-3.37264e-17
-3.27461e-17
-3.14784e-17
-3.4548e-17
-3.45894e-17
-3.47468e-17
-3.25756e-17
-3.19833e-17
-3.42939e-17
-3.28947e-17
-3.51383e-17
-3.73856e-17
-3.30278e-17
-3.43445e-17
-3.47489e-17
-3.22765e-17
-3.44073e-17
-3.61837e-17
-3.28103e-17
-2.91575e-17
-3.12028e-17
-3.17527e-17
-3.18199e-17
-3.27303e-17
-3.38653e-17
-3.61346e-17
-3.97199e-17
-3.82394e-17
-3.02704e-17
-3.23258e-17
-3.26438e-17
-3.11872e-17
-3.39895e-17
-3.68343e-17
-3.42408e-17
-3.34834e-17
-3.47581e-17
-3.6254e-17
-3.3092e-17
-3.14652e-17
-3.20514e-17
-3.27709e-17
-3.26465e-17
-3.30379e-17
-3.40746e-17
-3.45393e-17
-3.25073e-17
-3.47956e-17
-3.64655e-17
-3.45607e-17
-3.41148e-17
-3.43205e-17
-3.05657e-17
-2.99862e-17
-3.11222e-17
-3.43529e-17
-3.26279e-17
-3.45079e-17
-3.0701e-17
-2.84655e-17
-3.27865e-17
-3.62122e-17
-3.59044e-17
-3.25057e-17
-3.23755e-17
-3.37748e-17
-3.35958e-17
-3.6496e-17
-3.22103e-17
-3.56568e-17
-3.4448e-17
-3.73121e-17
-3.14798e-17
-3.5247e-17
-3.46494e-17
-3.2455e-17
-3.26544e-17
-3.54757e-17
-3.34422e-17
-3.66604e-17
-3.29868e-17
-3.40923e-17
-3.35787e-17
-3.13202e-17
-3.44717e-17
-3.30673e-17
-3.405e-17
-3.44977e-17
-3.28114e-17
-3.54711e-17
-3.33625e-17
-3.39435e-17
-3.5959e-17
-3.22021e-17
-3.41449e-17
-3.37603e-17
-3.44521e-17
-3.50296e-17
-3.49052e-17
-3.45667e-17
-3.1052e-17
-3.40635e-17
-2.81427e-17
-3.1738e-17
-3.52378e-17
-3.48456e-17
-3.57059e-17
-3.45879e-17
-3.11991e-17
-3.39815e-17
-3.52454e-17
-3.20977e-17
-3.1927e-17
-3.45228e-17
-3.44183e-17
-3.65035e-17
-3.49529e-17
-3.38017e-17
-3.29905e-17
-3.38216e-17
-3.03636e-17
-3.31314e-17
-3.33037e-17
-3.42747e-17
-3.45455e-17
-3.02252e-17
-3.40003e-17
-3.49124e-17
-3.55102e-17
-3.27259e-17
-3.46998e-17
-3.37993e-17
-3.45266e-17
-3.21324e-17
-3.8065e-17
-3.75988e-17
-3.54534e-17
-3.41567e-17
-3.31582e-17
-3.50242e-17
-3.80443e-17
-3.60082e-17
-3.52061e-17
-2.86632e-17
-3.49569e-17
-3.06332e-17
-3.59173e-17
-3.36927e-17
-3.49973e-17
-3.24443e-17
-3.26986e-17
-3.37637e-17
-3.59502e-17
-3.36276e-17
-3.14782e-17
-3.4421e-17
-3.61773e-17
-3.23893e-17
-3.45232e-17
-3.53892e-17
-3.75802e-17
-3.29431e-17
-3.30138e-17
-3.2249e-17
-3.49219e-17
-3.37274e-17
-3.50007e-17
-3.1166e-17
-3.36431e-17
-3.42034e-17
-3.18661e-17
-3.51832e-17
-3.66195e-17
-3.36715e-17
-3.59752e-17
-3.36766e-17
-6.53984e-17
-6.04351e-17
-6.1729e-17
-6.24286e-17
-6.0265e-17
-5.73477e-17
-6.46093e-17
-6.91035e-17
-7.25203e-17
-6.13085e-17
-5.87705e-17
-6.47581e-17
-5.86817e-17
-6.26009e-17
-6.24728e-17
-6.6004e-17
-6.5471e-17
-6.22639e-17
-6.01034e-17
-7.31251e-17
-6.10587e-17
-5.91955e-17
-6.29296e-17
-6.08573e-17
-6.79281e-17
-6.32839e-17
-6.79501e-17
-5.8138e-17
-6.33865e-17
-6.60964e-17
-5.94724e-17
-6.67225e-17
-6.21486e-17
-5.81523e-17
-6.1055e-17
-6.10902e-17
-6.26491e-17
-6.6329e-17
-6.31887e-17
-6.27751e-17
-6.34807e-17
-6.69971e-17
-6.44948e-17
-7.0891e-17
-5.24201e-17
-6.27917e-17
-6.13915e-17
-5.93894e-17
-6.4182e-17
-6.82946e-17
-6.66403e-17
-6.38153e-17
-6.42163e-17
-6.53707e-17
-6.37044e-17
-5.86177e-17
-6.47469e-17
-6.73156e-17
-6.52341e-17
-5.98324e-17
-6.39264e-17
-6.22893e-17
-5.84445e-17
-6.55095e-17
-7.10519e-17
-6.33714e-17
-6.63857e-17
-6.14241e-17
-5.86585e-17
-6.39365e-17
-6.3487e-17
-6.43809e-17
-5.89477e-17
-6.34443e-17
-6.36048e-17
-6.49585e-17
-6.74464e-17
-6.08226e-17
-5.70402e-17
-6.14893e-17
-6.10584e-17
-5.87574e-17
-5.97001e-17
-6.68788e-17
-6.8164e-17
-7.16382e-17
-6.23699e-17
-6.00894e-17
-5.77873e-17
-5.73395e-17
-6.19442e-17
-6.16255e-17
-6.66139e-17
-6.24606e-17
-6.44892e-17
-6.35226e-17
-6.44123e-17
-6.98826e-17
-6.78556e-17
-5.99679e-17
-6.27923e-17
-6.45464e-17
-6.05988e-17
-6.0308e-17
-6.27486e-17
-6.72411e-17
-7.73854e-17
-6.37827e-17
-5.78706e-17
-6.18746e-17
-6.6994e-17
-6.22164e-17
-6.4644e-17
-5.79821e-17
-6.2518e-17
-6.03742e-17
-6.39614e-17
-6.4954e-17
-5.95803e-17
-6.41748e-17
-6.53084e-17
-6.74393e-17
-6.24075e-17
-6.6935e-17
-6.53726e-17
-6.88069e-17
-6.22021e-17
-6.57062e-17
-6.63904e-17
-6.59333e-17
-6.45342e-17
-6.64666e-17
-5.62204e-17
-5.77222e-17
-6.34574e-17
-6.00839e-17
-6.56845e-17
-6.3989e-17
-6.06079e-17
-6.13544e-17
-6.19914e-17
-6.6126e-17
-7.09687e-17
-7.09568e-17
-6.27931e-17
-6.18108e-17
-5.96692e-17
-6.88641e-17
-6.80619e-17
-5.75342e-17
-6.0893e-17
-6.68027e-17
-6.28772e-17
-6.68475e-17
-5.82689e-17
-6.06662e-17
-6.35926e-17
-6.43377e-17
-6.0472e-17
-6.43287e-17
-6.48574e-17
-6.5838e-17
-6.21926e-17
-5.91217e-17
-6.32374e-17
-6.16664e-17
-6.78046e-17
-5.98644e-17
-6.04468e-17
-6.38369e-17
-7.08032e-17
-6.78616e-17
-6.61185e-17
-6.05346e-17
-7.14671e-17
-6.24265e-17
-6.13007e-17
-6.2659e-17
-6.4566e-17
-6.04795e-17
-6.66526e-17
-6.30211e-17
-6.37769e-17
-5.94502e-17
-6.04605e-17
-6.61845e-17
-6.17585e-17
-6.34046e-17
-6.47074e-17
-6.2333e-17
-6.1163e-17
-6.55272e-17
-6.28451e-17
-6.62286e-17
-6.96892e-17
-6.95797e-17
-6.5056e-17
-6.06687e-17
-6.0143e-17
-5.93966e-17
-6.31777e-17
-5.79029e-17
-6.11943e-17
-6.3542e-17
-6.39369e-17
-6.59388e-17
-6.56481e-17
-6.6496e-17
-5.86297e-17
-5.92845e-17
-6.01329e-17
-6.59022e-17
-6.1153e-17
-5.74736e-17
-6.5077e-17
-6.68823e-17
-5.80513e-17
-6.40265e-17
-6.51839e-17
-6.0402e-17
-6.06279e-17
-5.92175e-17
-6.56308e-17
-6.46587e-17
-6.85259e-17
-6.01184e-17
-6.25378e-17
-5.84633e-17
-6.3829e-17
-5.90522e-17
-6.46602e-17
-6.38216e-17
-6.93288e-17
-6.41502e-17
-6.24309e-17
-6.16683e-17
-6.38771e-17
-6.0374e-17
-6.49123e-17
-6.2748e-17
-6.27604e-17
-5.8254e-17
-5.99824e-17
-5.83053e-17
-6.35221e-17
-6.5286e-17
-5.98737e-17
-5.98543e-17
-6.07308e-17
-6.05351e-17
-6.76256e-17
-6.25634e-17
-6.07397e-17
-6.52564e-17
-6.16578e-17
-6.23865e-17
-1.30473e-16
-1.22826e-16
-1.19693e-16
-1.21299e-16
-1.21848e-16
-1.14561e-16
-1.17179e-16
-1.23405e-16
-1.10262e-16
-1.20697e-16
-1.26372e-16
-1.10515e-16
-1.10521e-16
-1.17236e-16
-1.18843e-16
-1.28069e-16
-1.21487e-16
-1.17841e-16
-1.06686e-16
-1.08576e-16
-1.25562e-16
-1.26896e-16
-1.14808e-16
-1.2473e-16
-1.2744e-16
-1.25667e-16
-1.14392e-16
-1.16443e-16
-1.22662e-16
-1.15827e-16
-1.03765e-16
-1.07824e-16
-1.09352e-16
-1.19772e-16
-1.19735e-16
-1.29891e-16
-1.17834e-16
-1.17335e-16
-1.24958e-16
-1.18493e-16
-1.21715e-16
-1.21218e-16
-1.18237e-16
-1.27307e-16
-1.28309e-16
-1.22814e-16
-1.17281e-16
-1.0785e-16
-1.23114e-16
-1.33625e-16
-1.07545e-16
-1.09617e-16
-1.19493e-16
-1.24068e-16
-1.25638e-16
-1.11162e-16
-1.22241e-16
-1.19836e-16
-1.08417e-16
-1.20797e-16
-1.16915e-16
-1.03107e-16
-1.00746e-16
-1.15997e-16
-1.14827e-16
-1.12134e-16
-1.12474e-16
-1.19102e-16
-1.19563e-16
-1.32044e-16
-1.19628e-16
-1.15982e-16
-1.10688e-16
-1.23048e-16
-1.11211e-16
-1.1576e-16
-1.27771e-16
-1.19974e-16
-1.07361e-16
-1.12991e-16
-1.29846e-16
-1.19193e-16
-1.12246e-16
-1.06636e-16
-1.21547e-16
-1.28832e-16
-1.15454e-16
-1.15298e-16
-1.21285e-16
-1.1054e-16
-1.06111e-16
-1.09283e-16
-1.34084e-16
-1.2197e-16
-1.0805e-16
-1.04453e-16
-1.33692e-16
-1.12311e-16
-1.25749e-16
-1.07147e-16
-1.19633e-16
-1.17071e-16
-1.14563e-16
-1.01717e-16
-1.18385e-16
-1.13059e-16
-1.18527e-16
-1.25663e-16
-1.24675e-16
-1.15241e-16
-1.27319e-16
-1.1752e-16
-1.17962e-16
-1.14598e-16
-1.09594e-16
-1.18057e-16
-1.23002e-16
-1.18224e-16
-1.14984e-16
-1.21457e-16
-1.21321e-16
-1.19879e-16
-1.28004e-16
-1.32857e-16
-1.15168e-16
-1.17036e-16
-1.26642e-16
-1.19387e-16
-1.19416e-16
-1.30824e-16
-1.28213e-16
-1.04766e-16
-1.1883e-16
-1.16069e-16
-1.18274e-16
-1.20994e-16
-1.07124e-16
-1.16553e-16
-1.14052e-16
-1.15126e-16
-1.21302e-16
-1.23723e-16
-1.31307e-16
-1.21426e-16
-1.16791e-16
-1.15105e-16
-1.13648e-16
-1.21088e-16
-1.26789e-16
-1.20452e-16
-1.14712e-16
-1.22571e-16
-1.25514e-16
-1.21871e-16
-1.07702e-16
-1.08406e-16
-1.11636e-16
-1.17384e-16
-1.31411e-16
-1.22924e-16
-1.24317e-16
-1.17451e-16
-1.23365e-16
-1.22199e-16
-1.18123e-16
-1.19116e-16
-1.08957e-16
-1.07651e-16
-1.0678e-16
-1.17969e-16
-1.16792e-16
-1.10144e-16
-1.23202e-16
-1.19487e-16
-1.21052e-16
-1.12998e-16
-1.15183e-16
-1.1435e-16
-1.25712e-16
-1.24779e-16
-1.22907e-16
-1.21309e-16
-1.18882e-16
-1.07203e-16
-1.20956e-16
-1.20007e-16
-1.31094e-16
-1.05223e-16
-1.16916e-16
-1.38248e-16
-1.10507e-16
-1.2404e-16
-1.19111e-16
-1.15477e-16
-1.20274e-16
-1.15973e-16
-1.15506e-16
-1.16281e-16
-1.06082e-16
-9.97198e-17
-1.16496e-16
-1.13331e-16
-1.19614e-16
-1.08012e-16
-1.13324e-16
-1.1739e-16
-1.17422e-16
-1.29362e-16
-1.16582e-16
-1.20954e-16
-1.13017e-16
-1.14495e-16
-1.25937e-16
-1.21479e-16
-1.11519e-16
-1.15813e-16
-1.0086e-16
-1.31833e-16
-1.3611e-16
-1.17429e-16
-1.21466e-16
-1.21627e-16
-1.15025e-16
-1.15783e-16
-1.23648e-16
-1.1943e-16
-1.28823e-16
-1.12008e-16
-1.12542e-16
-1.15475e-16
-1.18531e-16
-1.2945e-16
-1.37111e-16
-1.15178e-16
-1.25578e-16
-1.19635e-16
-1.07335e-16
-1.15189e-16
-1.24579e-16
-1.20544e-16
-1.17278e-16
-1.14785e-16
-1.07588e-16
-1.16922e-16
-1.13277e-16
-1.29699e-16
-1.04909e-16
-1.18586e-16
-9.91756e-17
-1.14255e-16
-1.23463e-16
-1.35975e-16
-1.13775e-16
-1.14915e-16
-1.17821e-16
-1.19031e-16
-2.23126e-16
-2.24644e-16
-2.24171e-16
-2.32409e-16
-2.13452e-16
-2.10216e-16
-2.24238e-16
-2.19812e-16
-2.13651e-16
-2.17697e-16
-2.23549e-16
-2.23403e-16
-2.32413e-16
-2.3614e-16
-2.2421e-16
-2.4418e-16
-2.30221e-16
-2.14434e-16
-2.2088e-16
-2.08399e-16
-2.07146e-16
-2.20161e-16
-2.23862e-16
-2.17194e-16
-1.96014e-16
-2.15053e-16
-2.1307e-16
-2.0488e-16
-2.37298e-16
-2.03013e-16
-2.38915e-16
-2.28941e-16
-2.28035e-16
-1.94192e-16
-2.02478e-16
-2.28497e-16
-2.47424e-16
-2.18362e-16
-2.26262e-16
-2.20834e-16
-2.28481e-16
-2.20837e-16
-2.2854e-16
-2.12959e-16
-2.25593e-16
-2.23561e-16
-2.33994e-16
-2.17855e-16
-2.06746e-16
-2.08532e-16
-2.19313e-16
-2.35276e-16
-2.34472e-16
-2.39974e-16
-2.08475e-16
-2.4737e-16
-2.53222e-16
-2.46478e-16
-2.09601e-16
-2.04295e-16
-1.889e-16
-2.02067e-16
-2.16537e-16
-2.1948e-16
-1.96296e-16
-1.98745e-16
-2.20417e-16
-2.38167e-16
-2.3381e-16
-2.42235e-16
-2.16377e-16
-2.23368e-16
-2.12915e-16
-2.32635e-16
-2.30228e-16
-2.15832e-16
-2.29614e-16
-2.38228e-16
-2.31229e-16
-2.1915e-16
-2.38535e-16
-2.15555e-16
-2.22096e-16
-2.00362e-16
-2.12231e-16
-2.34968e-16
-2.23216e-16
-2.23144e-16
-2.13698e-16
-2.02555e-16
-2.14504e-16
-2.32454e-16
-2.34891e-16
-2.23886e-16
-2.20479e-16
-2.24441e-16
-2.4794e-16
-2.23794e-16
-2.54165e-16
-2.24456e-16
-2.01098e-16
-2.01114e-16
-2.22785e-16
-2.10018e-16
-1.92553e-16
-1.94273e-16
-2.31469e-16
-2.36716e-16
-2.44826e-16
-2.2247e-16
-2.16703e-16
-2.1822e-16
-2.18206e-16
-2.0356e-16
-2.17589e-16
-2.24297e-16
-2.08653e-16
-2.00564e-16
-2.08937e-16
-2.1283e-16
-2.03689e-16
-2.17665e-16
-2.15512e-16
-2.44652e-16
-2.23642e-16
-2.00422e-16
-2.39108e-16
-2.25635e-16
-2.16138e-16
-2.3945e-16
-2.35435e-16
-2.37219e-16
-2.08876e-16
-2.10151e-16
-2.34978e-16
-2.39426e-16
-2.25289e-16
-1.92086e-16
-2.07796e-16
-2.25952e-16
-2.4182e-16
-2.24523e-16
-2.30112e-16
-2.0023e-16
-2.25455e-16
-2.15035e-16
-2.2433e-16
-2.22208e-16
-2.10133e-16
-2.23306e-16
-2.08983e-16
-2.03231e-16
-2.06508e-16
-2.17984e-16
-2.2714e-16
-2.03281e-16
-1.93607e-16
-2.1476e-16
-2.25707e-16
-2.44079e-16
-2.1553e-16
-2.17911e-16
-2.18696e-16
-2.35021e-16
-2.49373e-16
-2.19366e-16
-2.11343e-16
-2.13225e-16
-2.39209e-16
-2.26088e-16
-2.27563e-16
-2.18204e-16
-2.3907e-16
-2.43348e-16
-2.22419e-16
-1.97037e-16
-2.1876e-16
-2.19591e-16
-2.02188e-16
-2.40617e-16
-2.31684e-16
-2.26622e-16
-2.20409e-16
-2.16487e-16
-2.45934e-16
-2.40019e-16
-2.12602e-16
-2.11837e-16
-2.04916e-16
-2.64559e-16
-2.23147e-16
-2.17981e-16
-2.00488e-16
-1.88603e-16
-1.89779e-16
-2.14002e-16
-2.26764e-16
-2.12892e-16
-2.26518e-16
-2.04753e-16
-2.15242e-16
-2.07987e-16
-2.08542e-16
-1.96598e-16
-2.24616e-16
-2.55106e-16
-2.28134e-16
-2.2178e-16
-2.258e-16
-2.36049e-16
-2.16378e-16
-2.09914e-16
-2.19632e-16
-2.50511e-16
-2.05031e-16
-2.30906e-16
-2.07531e-16
-2.27737e-16
-2.60996e-16
-2.49973e-16
-2.40857e-16
-2.32815e-16
-2.15352e-16
-2.15615e-16
-2.0419e-16
-2.0183e-16
-2.32761e-16
-2.26743e-16
-2.11985e-16
-2.3093e-16
-2.03793e-16
-2.37267e-16
-2.47784e-16
-2.20245e-16
-2.21241e-16
-2.05279e-16
-2.18217e-16
-2.14787e-16
-2.2718e-16
-2.06311e-16
-2.34751e-16
-2.10981e-16
-1.92892e-16
-2.06847e-16
-1.98931e-16
-2.30852e-16
-2.45283e-16
-2.3066e-16
-2.05561e-16
-2.1085e-16
-2.40045e-16
-2.37603e-16
-2.18035e-16
-2.26034e-16
-2.46891e-16
-2.17918e-16
-4.05386e-16
-4.14152e-16
-4.26432e-16
-4.44732e-16
-3.64729e-16
-3.85004e-16
-4.45302e-16