# vtk DataFile Version 1.0
Electron Density - Current Sheet 
ASCII
DATASET STRUCTURED_POINTS
DIMENSIONS 256 128 1
ORIGIN 0 0 0
SPACING 0.15625 0.15625 1
POINT_DATA 32768
SCALARS rhoe float
LOOKUP_TABLE default
-2.03347e-18
-1.81426e-18
-1.65422e-18
-1.91706e-18
-2.21169e-18
-1.84436e-18
-1.71073e-18
-1.92762e-18
-1.77582e-18
-1.70618e-18
-2.18824e-18
-1.93418e-18
-1.88249e-18
-1.82278e-18
-1.74737e-18
-1.86709e-18
-1.73059e-18
-1.9857e-18
-2.02247e-18
-1.60434e-18
-2.07995e-18
-2.10107e-18
-1.7602e-18
-1.86453e-18
-2.11898e-18
-2.0268e-18
-1.64447e-18
-1.54686e-18
-1.84351e-18
-2.12858e-18
-1.97362e-18
-1.76786e-18
-1.83412e-18
-1.84836e-18
-1.96272e-18
-1.66879e-18
-2.12759e-18
-1.92021e-18
-2.08658e-18
-1.92692e-18
-1.62535e-18
-1.86547e-18
-2.04666e-18
-1.57109e-18
-1.75523e-18
-1.88453e-18
-1.7372e-18
-2.07699e-18
-2.05296e-18
-1.78048e-18
-2.01822e-18
-2.12093e-18
-1.99749e-18
-1.443e-18
-1.81404e-18
-2.11301e-18
-1.73006e-18
-1.79848e-18
-1.7003e-18
-1.90745e-18
-2.22555e-18
-2.03015e-18
-2.2313e-18
-1.92723e-18
-1.88613e-18
-1.67656e-18
-1.67884e-18
-1.82472e-18
-1.82546e-18
-2.20634e-18
-1.92698e-18
-1.71071e-18
-1.77734e-18
-1.70111e-18
-1.79618e-18
-2.01506e-18
-1.81502e-18
-1.79305e-18
-1.67146e-18
-1.81321e-18
-1.82068e-18
-2.03243e-18
-1.74635e-18
-1.92398e-18
-1.93538e-18
-1.88727e-18
-1.89048e-18
-1.73302e-18
-1.89424e-18
-2.0229e-18
-1.95586e-18
-1.41711e-18
-1.76488e-18
-1.98595e-18
-1.87097e-18
-2.19052e-18
-1.9601e-18
-1.78228e-18
-1.77934e-18
-1.69882e-18
-1.85552e-18
-1.80764e-18
-1.93852e-18
-1.78461e-18
-1.77416e-18
-1.69092e-18
-1.76484e-18
-1.99975e-18
-1.79726e-18
-1.90886e-18
-2.15694e-18
-1.90365e-18
-1.74374e-18
-1.78638e-18
-1.82727e-18
-1.98973e-18
-1.98543e-18
-1.74213e-18
-1.54385e-18
-1.96801e-18
-1.97758e-18
-1.98216e-18
-1.83821e-18
-1.68991e-18
-1.81667e-18
-2.024e-18
-1.94315e-18
-1.73338e-18
-1.823e-18
-1.78978e-18
-1.81931e-18
-1.85844e-18
-2.0508e-18
-1.85993e-18
-1.95684e-18
-1.79915e-18
-1.75966e-18
-1.87438e-18
-2.02869e-18
-1.91431e-18
-1.75966e-18
-1.72387e-18
-1.87586e-18
-2.06344e-18
-1.82846e-18
-1.71973e-18
-1.64171e-18
-1.93325e-18
-2.0861e-18
-2.0095e-18
-1.74895e-18
-1.74932e-18
-1.87146e-18
-1.78615e-18
-1.87885e-18
-1.85676e-18
-2.15463e-18
-1.82054e-18
-1.97178e-18
-1.87962e-18
-2.05804e-18
-2.02972e-18
-1.78066e-18
-1.90653e-18
-2.01389e-18
-1.76707e-18
-1.83322e-18
-1.88988e-18
-1.97856e-18
-1.62248e-18
-1.79132e-18
-2.10182e-18
-2.01426e-18
-1.71426e-18
-1.72849e-18
-1.81496e-18
-1.89901e-18
-1.75663e-18
-1.79795e-18
-2.22667e-18
-1.77924e-18
-1.81361e-18
-1.90768e-18
-2.08662e-18
-1.84982e-18
-1.41721e-18
-1.76897e-18
-2.09524e-18
-2.00304e-18
-2.17765e-18
-1.75264e-18
-1.58201e-18
-1.83317e-18
-1.7842e-18
-1.79794e-18
-1.92107e-18
-1.8166e-18
-1.82434e-18
-1.86601e-18
-2.09852e-18
-1.88811e-18
-1.78869e-18
-1.9129e-18
-1.95855e-18
-2.02148e-18
-1.90903e-18
-1.8155e-18
-1.90347e-18
-1.62679e-18
-1.99818e-18
-1.88154e-18
-1.76616e-18
-1.79267e-18
-1.7808e-18
-2.04012e-18
-1.92558e-18
-1.77668e-18
-1.97945e-18
-2.08808e-18
-1.9004e-18
-2.00467e-18
-1.81447e-18
-1.74146e-18
-1.79905e-18
-1.83845e-18
-1.73881e-18
-1.76124e-18
-1.99146e-18
-1.68486e-18
-1.91871e-18
-1.68905e-18
-1.85632e-18
-2.08065e-18
-1.78584e-18
-1.70428e-18
-1.84789e-18
-2.06964e-18
-1.85956e-18
-1.81412e-18
-1.8827e-18
-1.94841e-18
-1.83478e-18
-1.97209e-18
-1.83478e-18
-1.81329e-18
-1.87162e-18
-1.96611e-18
-2.20893e-18
-1.76518e-18
-1.9295e-18
-1.8586e-18
-1.7917e-18
-1.95504e-18
-1.9969e-18
-1.77254e-18
-1.79521e-18
-2.91546e-18
-2.65807e-18
-2.68403e-18
-2.81353e-18
-2.98559e-18
-2.65345e-18
-3.01462e-18
-2.67383e-18
-2.75622e-18
-2.74767e-18
-2.8614e-18
-2.97199e-18
-2.83315e-18
-2.94183e-18
-2.83069e-18
-2.85512e-18
-2.79679e-18
-2.76389e-18
-3.00127e-18
-2.52138e-18
-2.77529e-18
-2.79005e-18
-2.69572e-18
-2.92496e-18
-2.93151e-18
-2.7994e-18
-2.64663e-18
-2.61683e-18
-2.90826e-18
-2.90984e-18
-2.62739e-18
-2.77174e-18
-2.83619e-18
-2.71914e-18
-3.05238e-18
-2.84155e-18
-2.84742e-18
-2.8897e-18
-2.85034e-18
-2.59614e-18
-2.9499e-18
-2.76037e-18
-2.78442e-18
-2.66438e-18
-2.86933e-18
-2.90358e-18
-2.76297e-18
-2.91438e-18
-2.86195e-18
-2.65811e-18
-2.72268e-18
-3.15065e-18
-3.0562e-18
-2.35885e-18
-2.8242e-18
-2.694e-18
-2.92418e-18
-2.93867e-18
-2.45961e-18
-2.90098e-18
-2.70852e-18
-2.86669e-18
-2.87137e-18
-2.64225e-18
-3.04784e-18
-2.8848e-18
-2.74429e-18
-2.80374e-18
-2.5015e-18
-2.80918e-18
-2.84561e-18
-2.87191e-18
-2.79522e-18
-2.74111e-18
-3.14083e-18
-2.82995e-18
-2.59965e-18
-2.89984e-18
-2.82052e-18
-2.71899e-18
-2.78376e-18
-2.9648e-18
-3.11694e-18
-2.61205e-18
-2.66635e-18
-2.73659e-18
-2.79728e-18
-2.91346e-18
-2.85901e-18
-2.84549e-18
-3.00861e-18
-2.76535e-18
-2.73725e-18
-2.96963e-18
-2.59989e-18
-2.82182e-18
-2.79969e-18
-2.96416e-18
-2.61003e-18
-2.56057e-18
-2.93568e-18
-2.7187e-18
-2.90237e-18
-2.88487e-18
-2.66155e-18
-2.51456e-18
-2.9504e-18
-3.16222e-18
-2.85034e-18
-2.85545e-18
-2.89844e-18
-2.62761e-18
-2.94521e-18
-2.85418e-18
-2.45067e-18
-2.83976e-18
-2.82277e-18
-2.86799e-18
-2.72016e-18
-2.63481e-18
-3.22911e-18
-3.23575e-18
-2.75695e-18
-2.91628e-18
-2.56613e-18
-2.943e-18
-3.0416e-18
-2.85672e-18
-2.42779e-18
-2.64084e-18
-3.04438e-18
-2.67113e-18
-3.03581e-18
-2.77036e-18
-2.69394e-18
-2.98509e-18
-2.65982e-18
-2.93605e-18
-2.92015e-18
-2.60201e-18
-2.46269e-18
-2.88094e-18
-2.82138e-18
-2.91573e-18
-2.88935e-18
-2.97286e-18
-2.77966e-18
-2.43752e-18
-2.81242e-18
-3.03813e-18
-2.75724e-18
-2.64215e-18
-2.83793e-18
-2.983e-18
-2.93254e-18
-2.75169e-18
-2.87352e-18
-2.68783e-18
-2.8958e-18
-2.75342e-18
-2.77201e-18
-2.87511e-18
-2.55228e-18
-2.77831e-18
-3.06021e-18
-2.73009e-18
-2.82267e-18
-2.82151e-18
-2.66612e-18
-2.99355e-18
-2.72983e-18
-2.5983e-18
-2.8812e-18
-2.97822e-18
-2.87125e-18
-2.73051e-18
-2.79811e-18
-2.89089e-18
-2.89562e-18
-2.87845e-18
-2.55972e-18
-2.75545e-18
-2.90537e-18
-2.91163e-18
-2.78866e-18
-2.65447e-18
-2.86455e-18
-2.58028e-18
-2.78705e-18
-2.97403e-18
-2.74031e-18
-2.98487e-18
-2.90909e-18
-2.74905e-18
-2.71619e-18
-2.93779e-18
-2.93514e-18
-2.77287e-18
-2.63833e-18
-2.80336e-18
-2.8751e-18
-2.83244e-18
-2.85005e-18
-2.81126e-18
-2.79363e-18
-2.61947e-18
-2.85067e-18
-2.8784e-18
-3.03092e-18
-2.97433e-18
-2.74344e-18
-2.92066e-18
-3.12457e-18
-2.59957e-18
-2.6523e-18
-2.59626e-18
-2.7363e-18
-2.96069e-18
-2.88395e-18
-2.93919e-18
-2.66288e-18
-2.52574e-18
-2.8385e-18
-2.92992e-18
-2.84867e-18
-2.75749e-18
-2.85572e-18
-2.90043e-18
-2.87861e-18
-2.99147e-18
-2.61043e-18
-2.42734e-18
-2.87872e-18
-2.92122e-18
-2.81306e-18
-2.8698e-18
-2.67579e-18
-2.99628e-18
-2.79723e-18
-2.73198e-18
-2.89531e-18
-2.80134e-18
-2.565e-18
-2.66216e-18
-2.98261e-18
-2.77721e-18
-2.59109e-18
-3.00063e-18
-2.99538e-18
-2.62334e-18
-2.79377e-18
-3.03767e-18
-2.94408e-18
-2.61402e-18
-2.78371e-18
-2.6882e-18
-5.25247e-18
-5.20158e-18
-4.9019e-18
-5.31888e-18
-5.53698e-18
-5.11016e-18
-5.40271e-18
-4.76069e-18
-5.01817e-18
-5.33931e-18
-4.80502e-18
-5.03838e-18
-5.2878e-18
-5.62381e-18
-5.41549e-18
-5.16959e-18
-5.21558e-18
-5.12855e-18
-4.96742e-18
-4.7434e-18
-5.17617e-18
-5.33843e-18
-5.40606e-18
-5.50102e-18
-5.26286e-18
-5.19627e-18
-5.51153e-18
-4.93046e-18
-5.09304e-18
-5.30628e-18
-4.64614e-18
-4.98032e-18
-5.18285e-18
-5.36101e-18
-5.24642e-18
-5.57914e-18
-5.23685e-18
-4.87888e-18
-5.37137e-18
-5.18017e-18
-5.05413e-18
-4.90312e-18
-4.66217e-18
-5.46011e-18
-5.31844e-18
-5.57733e-18
-5.77175e-18
-4.90889e-18
-4.8593e-18
-4.91084e-18
-5.46818e-18
-4.88178e-18
-5.54368e-18
-4.81174e-18
-5.30665e-18
-4.58806e-18
-5.13463e-18
-5.41959e-18
-5.31931e-18
-5.63332e-18
-5.4998e-18
-5.2732e-18
-5.14648e-18
-5.01668e-18
-5.10116e-18
-5.02698e-18
-5.32955e-18
-5.07692e-18
-5.09486e-18
-4.92425e-18
-5.3023e-18
-5.07345e-18
-5.07783e-18
-5.33549e-18
-5.11145e-18
-5.12785e-18
-5.35915e-18
-5.60581e-18
-4.99263e-18
-5.42198e-18
-5.67208e-18
-4.90369e-18
-5.32585e-18
-5.02535e-18
-5.23209e-18
-4.80852e-18
-5.36083e-18
-5.17856e-18
-5.37744e-18
-5.15662e-18
-5.71301e-18
-5.0783e-18
-4.63479e-18
-5.25495e-18
-5.24479e-18
-5.39518e-18
-5.22922e-18
-5.45423e-18
-4.96892e-18
-5.13576e-18
-4.97005e-18
-4.84976e-18
-5.46504e-18
-5.68402e-18
-5.45072e-18
-4.45789e-18
-4.8504e-18
-5.3987e-18
-5.21644e-18
-5.21041e-18
-5.63702e-18
-5.25048e-18
-5.22614e-18
-5.27827e-18
-4.83238e-18
-5.37527e-18
-5.23197e-18
-5.56794e-18
-5.06076e-18
-4.92036e-18
-5.37999e-18
-5.20672e-18
-5.38593e-18
-5.07394e-18
-4.68562e-18
-5.64248e-18
-5.59529e-18
-5.15589e-18
-5.0758e-18
-5.01986e-18
-5.31279e-18
-5.06406e-18
-4.87977e-18
-5.30527e-18
-5.27535e-18
-4.88437e-18
-5.01792e-18
-5.1579e-18
-5.59222e-18
-5.64916e-18
-4.63181e-18
-5.11398e-18
-5.34059e-18
-5.21827e-18
-4.98862e-18
-5.32037e-18
-5.38638e-18
-4.96295e-18
-5.4367e-18
-5.12124e-18
-4.97835e-18
-4.97905e-18
-4.93481e-18
-5.32198e-18
-5.0288e-18
-4.93546e-18
-5.16977e-18
-5.55799e-18
-5.37236e-18
-5.69516e-18
-4.92197e-18
-5.78856e-18
-5.29755e-18
-4.79226e-18
-5.03131e-18
-4.8748e-18
-5.07689e-18
-5.3396e-18
-5.5842e-18
-4.91993e-18
-4.9586e-18
-5.30207e-18
-5.83355e-18
-5.06664e-18
-5.10694e-18
-5.10401e-18
-5.36493e-18
-5.44474e-18
-5.21607e-18
-4.82234e-18
-4.63448e-18
-5.32314e-18
-5.08816e-18
-4.96473e-18
-5.87206e-18
-5.29497e-18
-5.61692e-18
-5.20134e-18
-4.87624e-18
-5.14291e-18
-4.9951e-18
-4.8199e-18
-5.34152e-18
-5.19754e-18
-5.22082e-18
-5.25262e-18
-5.50086e-18
-5.07686e-18
-4.73228e-18
-5.03787e-18
-5.65963e-18
-5.02873e-18
-5.47064e-18
-5.35416e-18
-5.18317e-18
-5.42473e-18
-5.36726e-18
-4.96243e-18
-5.38175e-18
-4.89078e-18
-5.00268e-18
-4.8846e-18
-5.46987e-18
-5.26405e-18
-5.29045e-18
-4.8239e-18
-5.23723e-18
-5.38319e-18
-4.88546e-18
-4.78162e-18
-5.07806e-18
-5.49934e-18
-5.34541e-18
-5.40722e-18
-5.0913e-18
-4.66569e-18
-5.28772e-18
-5.72987e-18
-5.34154e-18
-5.35164e-18
-5.32568e-18
-5.14578e-18
-5.36207e-18
-5.26112e-18
-4.6305e-18
-4.68853e-18
-5.42906e-18
-5.71743e-18
-5.20057e-18
-5.16284e-18
-5.33482e-18
-5.11618e-18
-5.08194e-18
-5.1931e-18
-5.30989e-18
-5.75655e-18
-4.80751e-18
-4.9179e-18
-5.29899e-18
-4.99864e-18
-5.32799e-18
-5.45059e-18
-5.53068e-18
-4.74496e-18
-5.33806e-18
-5.24269e-18
-9.39282e-18
-1.01787e-17
-1.00198e-17
-9.37643e-18
-9.54895e-18
-1.00679e-17
-9.53157e-18
-9.13935e-18
-1.00035e-17
-1.01343e-17
-8.89009e-18
-9.52005e-18
-1.04508e-17
-1.00141e-17
-1.00495e-17
-9.65609e-18
-9.71715e-18
-8.86476e-18
-9.54778e-18
-9.98909e-18
-1.05313e-17
-9.91378e-18
-9.81166e-18
-8.71704e-18
-9.89507e-18
-9.83254e-18
-9.55346e-18
-9.44311e-18
-1.03012e-17
-9.4005e-18
-9.58474e-18
-9.42482e-18
-9.20139e-18
-1.03399e-17
-9.94011e-18
-1.06844e-17
-9.57435e-18
-9.61454e-18
-9.846e-18
-9.72035e-18
-8.91606e-18
-9.13154e-18
-9.39714e-18
-1.02769e-17
-9.54161e-18
-9.78598e-18
-1.06254e-17
-9.82224e-18
-9.44277e-18
-1.03486e-17
-9.30575e-18
-9.5748e-18
-9.33046e-18
-9.82814e-18
-9.13945e-18
-9.73579e-18
-1.01723e-17
-9.25379e-18
-9.80495e-18
-1.00524e-17
-9.52579e-18
-1.0025e-17
-9.99886e-18
-9.55078e-18
-8.54909e-18
-9.14121e-18
-1.0061e-17
-1.02709e-17
-1.02376e-17
-9.91703e-18
-1.01855e-17
-8.9815e-18
-9.52175e-18
-1.00923e-17
-8.50014e-18
-9.45826e-18
-9.55207e-18
-1.1145e-17
-1.02278e-17
-9.45489e-18
-9.51169e-18
-9.69725e-18
-9.75429e-18
-9.66092e-18
-9.55905e-18
-9.25331e-18
-9.69033e-18
-1.01284e-17
-9.93245e-18
-9.58663e-18
-9.61039e-18
-1.00508e-17
-8.95369e-18
-9.74746e-18
-1.05579e-17
-9.54031e-18
-9.48194e-18
-9.5053e-18
-1.013e-17
-9.6432e-18
-9.42206e-18
-8.44983e-18
-9.81588e-18
-1.02667e-17
-9.44184e-18
-1.00646e-17
-9.35868e-18
-9.37509e-18
-9.92316e-18
-1.02003e-17
-1.04404e-17
-9.06133e-18
-9.16604e-18
-9.53195e-18
-1.0318e-17
-1.04163e-17
-8.63536e-18
-9.87113e-18
-1.07243e-17
-9.2569e-18
-1.0227e-17
-1.03534e-17
-9.35969e-18
-8.72512e-18
-8.52484e-18
-1.04985e-17
-1.01209e-17
-9.80597e-18
-9.55667e-18
-8.82899e-18
-9.73681e-18
-1.00331e-17
-1.05878e-17
-1.02615e-17
-9.51266e-18
-1.04043e-17
-1.00254e-17
-9.2969e-18
-9.04388e-18
-9.55497e-18
-8.29282e-18
-9.61187e-18
-1.10428e-17
-9.65874e-18
-1.01777e-17
-8.96189e-18
-8.85107e-18
-9.55546e-18
-1.00317e-17
-9.43958e-18
-9.82894e-18
-9.48809e-18
-1.0392e-17
-9.29389e-18
-9.86167e-18
-9.37422e-18
-9.72489e-18
-9.5816e-18
-1.01547e-17
-1.03065e-17
-9.09775e-18
-8.93149e-18
-9.54433e-18
-9.35414e-18
-1.00723e-17
-1.05356e-17
-1.00328e-17
-8.55607e-18
-1.03682e-17
-9.64448e-18
-9.47464e-18
-1.01151e-17
-9.62759e-18
-9.97402e-18
-9.12606e-18
-9.47254e-18
-1.05679e-17
-9.62752e-18
-9.34739e-18
-9.34178e-18
-9.8337e-18
-1.06493e-17
-9.7824e-18
-8.91177e-18
-9.86991e-18
-1.00105e-17
-9.69485e-18
-9.95697e-18
-9.35854e-18
-9.976e-18
-9.08541e-18
-9.0381e-18
-9.67266e-18
-1.00191e-17
-1.11156e-17
-9.72693e-18
-8.87196e-18
-9.86157e-18
-9.98735e-18
-8.87666e-18
-9.34223e-18
-9.76571e-18
-1.02841e-17
-1.09282e-17
-9.77675e-18
-9.29779e-18
-9.42941e-18
-9.03724e-18
-1.0136e-17
-9.54393e-18
-9.42748e-18
-9.48283e-18
-1.0457e-17
-9.5425e-18
-9.58996e-18
-9.25487e-18
-9.87519e-18
-9.5445e-18
-9.27825e-18
-9.88136e-18
-1.03239e-17
-9.3865e-18
-1.01892e-17
-9.32738e-18
-9.28598e-18
-9.82822e-18
-9.79364e-18
-9.47055e-18
-1.08841e-17
-9.84573e-18
-9.65743e-18
-1.03408e-17
-8.96253e-18
-9.69723e-18
-9.34829e-18
-9.30618e-18
-9.33416e-18
-9.95484e-18
-9.72256e-18
-9.63608e-18
-9.66735e-18
-9.8026e-18
-9.4419e-18
-1.03369e-17
-9.66103e-18
-1.02924e-17
-9.05119e-18
-1.00403e-17
-9.73427e-18
-9.12521e-18
-9.29326e-18
-1.02516e-17
-1.01259e-17
-8.56162e-18
-9.78716e-18
-9.54255e-18
-1.85859e-17
-1.787e-17
-1.93888e-17
-1.90771e-17
-1.63608e-17
-1.86908e-17
-1.84133e-17
-1.87992e-17
-1.83168e-17
-1.70084e-17
-1.8279e-17
-1.76518e-17
-2.03936e-17
-1.88371e-17
-1.6375e-17
-1.78196e-17
-1.81965e-17
-1.75516e-17
-1.7153e-17
-1.93546e-17
-1.88551e-17
-1.72442e-17
-1.62213e-17
-1.80923e-17
-2.00542e-17
-1.76867e-17
-1.81411e-17
-1.95747e-17
-1.9295e-17
-1.75251e-17
-1.9998e-17
-1.81396e-17
-1.5758e-17
-1.83328e-17
-1.77442e-17
-1.90032e-17
-1.75331e-17
-1.87916e-17
-1.67874e-17
-1.7982e-17
-1.68324e-17
-1.82567e-17
-1.82922e-17
-1.85064e-17
-1.87988e-17
-1.7881e-17
-1.78766e-17
-1.80446e-17
-1.83361e-17
-1.84246e-17
-1.79773e-17
-1.97073e-17
-1.67525e-17
-1.83221e-17
-1.74032e-17
-1.86374e-17
-1.85139e-17
-1.75723e-17
-1.86858e-17
-1.84552e-17
-1.84539e-17
-1.91341e-17
-1.66048e-17
-1.75404e-17
-1.78679e-17
-1.78859e-17
-1.93265e-17
-1.85158e-17
-1.68316e-17
-1.92415e-17
-1.79264e-17
-1.89129e-17
-1.76701e-17
-1.63376e-17
-1.71908e-17
-1.9009e-17
-1.92123e-17
-1.85001e-17
-1.847e-17
-1.86495e-17
-1.65798e-17
-1.80837e-17
-1.75131e-17
-1.80908e-17
-1.90793e-17
-1.73399e-17
-1.77801e-17
-1.89993e-17
-1.9204e-17
-2.02823e-17
-1.81778e-17
-1.774e-17
-1.73143e-17
-1.71669e-17
-1.70976e-17
-1.74472e-17
-1.97792e-17
-1.86633e-17
-1.73242e-17
-1.83164e-17
-1.74584e-17
-1.82803e-17
-1.8739e-17
-1.78388e-17
-1.67908e-17
-1.80257e-17
-1.93323e-17
-1.79637e-17
-1.96614e-17
-1.64142e-17
-2.00872e-17
-1.92012e-17
-1.86231e-17
-1.60227e-17
-1.86664e-17
-1.87628e-17
-1.71981e-17
-1.72294e-17
-1.83864e-17
-1.73677e-17
-1.94983e-17
-1.83851e-17
-1.6969e-17
-1.78117e-17
-2.01265e-17
-1.79774e-17
-1.68684e-17
-1.88028e-17
-1.83793e-17
-1.68916e-17
-1.77209e-17
-1.88243e-17
-1.85616e-17
-1.58362e-17
-1.83551e-17
-1.91921e-17
-1.82642e-17
-1.81618e-17
-1.77845e-17
-1.80648e-17
-1.74933e-17
-1.90234e-17
-1.8998e-17
-1.79904e-17
-1.86207e-17
-1.84635e-17
-1.79543e-17
-1.80846e-17
-1.80856e-17
-1.749e-17
-1.71883e-17
-1.8225e-17
-1.96099e-17
-1.60105e-17
-1.68083e-17
-1.99575e-17
-1.87091e-17
-1.89602e-17
-1.72476e-17
-1.64241e-17
-1.84368e-17
-2.01727e-17
-1.76387e-17
-1.74303e-17
-1.82291e-17
-1.8731e-17
-1.90339e-17
-1.78565e-17
-1.84951e-17
-1.85635e-17
-1.74392e-17
-1.90315e-17
-1.76474e-17
-1.86228e-17
-1.80378e-17
-1.79534e-17
-1.94906e-17
-1.6791e-17
-1.78381e-17
-1.98487e-17
-1.71503e-17
-2.02593e-17
-1.66152e-17
-1.87714e-17
-1.73756e-17
-1.65197e-17
-1.8317e-17
-1.78931e-17
-1.81977e-17
-1.81677e-17
-1.83016e-17
-1.87842e-17
-1.93573e-17
-1.69432e-17
-1.83697e-17
-1.78047e-17
-1.73582e-17
-1.7679e-17
-1.9328e-17
-1.79336e-17
-1.74294e-17
-1.8398e-17
-1.83624e-17
-1.97114e-17
-1.7906e-17
-1.93732e-17
-1.7962e-17
-1.6247e-17
-1.67988e-17
-2.04428e-17
-1.85354e-17
-1.74221e-17
-1.84718e-17
-1.80743e-17
-1.79872e-17
-1.9177e-17
-1.73063e-17
-1.68812e-17
-1.86632e-17
-1.66539e-17
-1.94931e-17
-1.7723e-17
-1.92892e-17
-1.76384e-17
-1.84804e-17
-1.85155e-17
-1.76252e-17
-1.70471e-17
-1.79317e-17
-1.911e-17
-1.78531e-17
-1.96259e-17
-1.66832e-17
-1.83289e-17
-1.72667e-17
-1.90411e-17
-1.93255e-17
-1.65039e-17
-1.91295e-17
-1.70391e-17
-1.873e-17
-1.77198e-17
-1.77566e-17
-1.72625e-17
-1.84618e-17
-1.81518e-17
-1.84294e-17
-1.87091e-17
-1.8794e-17
-1.82082e-17
-1.72623e-17
-1.74718e-17
-1.80527e-17
-1.87468e-17
-1.7771e-17
-1.78662e-17
-3.08167e-17
-3.24155e-17
-3.59418e-17
-3.80163e-17
-3.22688e-17
-3.19088e-17
-3.42894e-17
-3.33529e-17
-3.49065e-17
-3.22992e-17
-3.49501e-17
-3.26641e-17
-3.34305e-17
-3.24902e-17
-3.21126e-17
-3.67688e-17
-3.44756e-17
-3.2645e-17
-3.29658e-17
-3.38452e-17
-3.46492e-17
-3.37173e-17
-3.15084e-17
-3.18506e-17
-3.76059e-17
-3.4467e-17
-3.60632e-17
-3.21691e-17
-3.37579e-17
-3.49785e-17
-3.50313e-17
-3.56024e-17
-2.88835e-17
-3.49311e-17
-3.2933e-17
-3.40068e-17
-3.3574e-17
-3.70104e-17
-3.24944e-17
-3.28965e-17
-3.47474e-17
-3.39031e-17
-3.27101e-17
-3.60304e-17
-3.43445e-17
-3.14862e-17
-3.25917e-17
-3.36302e-17
-3.52535e-17
-3.4962e-17
-3.44825e-17
-3.17381e-17
-3.0975e-17
-3.52535e-17
-3.38059e-17
-3.32213e-17
-3.29723e-17
-3.24542e-17
-3.04183e-17
-3.74576e-17
-3.95484e-17
-3.39845e-17
-3.10672e-17
-3.1991e-17
-3.25932e-17
-3.41257e-17
-3.51391e-17
-3.5501e-17
-3.20048e-17
-3.28303e-17
-3.12682e-17
-3.63323e-17
-3.40381e-17
-3.5896e-17
-3.46837e-17
-3.36516e-17
-3.3923e-17
-3.38052e-17
-3.48386e-17
-3.47987e-17
-3.24963e-17
-3.30062e-17
-3.25969e-17
-3.59115e-17
-3.4873e-17
-3.4308e-17
-3.26433e-17
-3.19186e-17
-3.48604e-17
-3.39948e-17
-3.47582e-17
-3.37665e-17
-3.28774e-17
-3.34567e-17
-3.35157e-17
-3.24606e-17
-3.65612e-17
-3.33265e-17
-3.57451e-17
-3.46975e-17
-3.05543e-17
-3.31161e-17
-3.3922e-17
-3.10878e-17
-3.54634e-17
-3.6879e-17
-3.40584e-17
-3.58376e-17
-3.53762e-17
-2.98569e-17
-3.65902e-17
-3.2969e-17
-3.01429e-17
-3.47149e-17
-3.15095e-17
-3.55479e-17
-3.2655e-17
-3.79309e-17
-3.17481e-17
-3.40284e-17
-3.51156e-17
-3.34805e-17
-3.2289e-17
-3.35461e-17
-3.5206e-17
-3.32427e-17
-3.3821e-17
-3.74147e-17
-3.40582e-17
-3.55223e-17
-3.35629e-17
-3.34685e-17
-3.36814e-17
-3.20507e-17
-3.34942e-17
-3.23349e-17
-3.50422e-17
-3.26773e-17
-3.38262e-17
-3.42787e-17
-3.31463e-17
-3.42223e-17
-3.06753e-17
-3.38783e-17
-3.83297e-17
-3.31242e-17
-3.32188e-17
-3.21711e-17
-3.39096e-17
-3.48892e-17
-3.34359e-17
-3.55287e-17
-3.34835e-17
-3.31775e-17
-3.32822e-17
-3.50696e-17
-3.39225e-17
-3.37903e-17
-3.57851e-17
-3.12315e-17
-3.26016e-17
-3.49374e-17
-3.60788e-17
-3.1033e-17
-3.37578e-17
-3.40566e-17
-3.07408e-17
-3.27973e-17
-3.57678e-17
-3.69969e-17
-3.2979e-17
-3.1492e-17
-3.31267e-17
-3.77408e-17
-3.51354e-17
-3.61682e-17
-3.44826e-17
-3.12134e-17
-3.13627e-17
-3.51155e-17
-3.60106e-17
-3.35129e-17
-3.15998e-17
-3.37891e-17
-3.43915e-17
-3.37744e-17
-3.29134e-17
-3.41138e-17
-3.3589e-17
-3.47087e-17
-3.36767e-17
-3.36415e-17
-3.52352e-17
-3.25277e-17
-3.38653e-17
-3.5139e-17
-3.44069e-17
-3.26861e-17
-3.32594e-17
-3.44075e-17
-3.23762e-17
-3.34376e-17
-3.53102e-17
-3.51554e-17
-3.44262e-17
-3.18939e-17
-3.49058e-17
-3.46572e-17
-3.08983e-17
-3.33821e-17
-3.0908e-17
-3.32386e-17
-3.43629e-17
-3.57109e-17
-3.55787e-17
-3.47524e-17
-3.3527e-17
-3.64559e-17
-3.55789e-17
-3.07293e-17
-3.21148e-17
-3.53523e-17
-3.35049e-17
-3.4162e-17
-3.44836e-17
-3.47394e-17
-3.2761e-17
-3.55107e-17
-3.20873e-17
-3.44315e-17
-3.28191e-17
-3.66243e-17
-3.35726e-17
-3.43437e-17
-3.29851e-17
-3.12561e-17
-3.27072e-17
-3.08793e-17
-3.49539e-17
-3.5448e-17
-3.37789e-17
-3.43585e-17
-3.5266e-17
-3.45062e-17
-3.61732e-17
-3.38975e-17
-3.2179e-17
-3.22517e-17
-3.24811e-17
-3.30362e-17
-3.59224e-17
-3.67156e-17
-3.30245e-17
-3.22175e-17
-3.37146e-17
-3.76837e-17
-6.4436e-17
-6.01468e-17
-5.77862e-17
-5.97189e-17
-7.02541e-17
-6.3523e-17
-6.32157e-17
-6.17609e-17
-6.01902e-17
-6.3832e-17
-6.29136e-17
-6.06345e-17
-6.2886e-17
-6.24596e-17
-6.48811e-17
-6.63788e-17
-6.22336e-17
-6.1612e-17
-6.04506e-17
-6.12626e-17
-6.68855e-17
-7.03268e-17
-6.33226e-17
-6.20758e-17
-6.53004e-17
-6.32467e-17
-6.36716e-17
-6.13136e-17
-6.48605e-17
-6.57862e-17
-6.15643e-17
-5.73573e-17
-6.06983e-17
-6.14887e-17
-5.83735e-17
-6.73553e-17
-6.24602e-17
-7.13616e-17
-6.26553e-17
-6.11154e-17
-6.36947e-17
-6.30988e-17
-6.70208e-17
-6.79758e-17
-6.47585e-17
-5.39843e-17
-6.36615e-17
-6.24988e-17
-6.30834e-17
-6.35752e-17
-6.94705e-17
-6.028e-17
-6.62513e-17
-5.97445e-17
-5.56037e-17
-6.18112e-17
-7.43402e-17
-6.45507e-17
-6.15542e-17
-6.27637e-17
-6.24622e-17
-5.9853e-17
-6.75477e-17
-6.87012e-17
-6.03927e-17
-6.02354e-17
-6.27277e-17
-6.30656e-17
-6.18144e-17
-6.39296e-17
-5.98695e-17
-6.52677e-17
-6.8502e-17
-6.23497e-17
-6.05994e-17
-6.56346e-17
-7.28279e-17
-5.93914e-17
-6.46951e-17
-6.29678e-17
-5.46774e-17
-6.10823e-17
-6.81709e-17
-6.55051e-17
-6.15572e-17
-6.10152e-17
-6.83094e-17
-5.93921e-17
-6.21927e-17
-6.0469e-17
-6.30787e-17
-6.28713e-17
-6.63373e-17
-6.37852e-17
-6.16701e-17
-6.80806e-17
-6.50053e-17
-6.57418e-17
-6.05657e-17
-6.14106e-17
-6.33032e-17
-6.27855e-17
-6.18823e-17
-6.3076e-17
-6.46346e-17
-6.04112e-17
-6.29846e-17
-6.61145e-17
-6.32131e-17
-5.81857e-17
-6.24161e-17
-6.79207e-17
-6.53677e-17
-5.93616e-17
-6.1529e-17
-5.90064e-17
-6.78683e-17
-7.03219e-17
-6.50826e-17
-5.57313e-17
-6.42173e-17
-6.36848e-17
-6.25429e-17
-6.39527e-17
-6.62305e-17
-6.6811e-17
-6.01859e-17
-6.45168e-17
-6.58301e-17
-6.27363e-17
-5.72924e-17
-6.15578e-17
-6.32932e-17
-7.15614e-17
-5.98557e-17
-5.95868e-17
-6.22695e-17
-6.07858e-17
-6.26541e-17
-6.69813e-17
-6.12837e-17
-6.58162e-17
-6.2303e-17
-6.22154e-17
-6.67084e-17
-6.27916e-17
-6.44053e-17
-6.04015e-17
-6.13453e-17
-5.70913e-17
-5.98359e-17
-7.3124e-17
-6.9646e-17
-6.24868e-17
-6.46259e-17
-6.55745e-17
-6.57547e-17
-5.93563e-17
-5.97431e-17
-5.83849e-17
-7.12656e-17
-6.3819e-17
-5.94338e-17
-6.14066e-17
-6.40573e-17
-6.12618e-17
-6.1338e-17
-6.55812e-17
-6.32667e-17
-6.2435e-17
-5.8004e-17
-6.63894e-17
-6.41467e-17
-6.55358e-17
-6.33411e-17
-6.27652e-17
-6.46414e-17
-6.50263e-17
-6.684e-17
-5.96787e-17
-6.23028e-17
-6.10958e-17
-6.54636e-17
-5.89189e-17
-6.88078e-17
-6.65267e-17
-6.47879e-17
-6.36112e-17
-6.34479e-17
-5.87618e-17
-7.06977e-17
-5.76343e-17
-5.59558e-17
-6.65803e-17
-6.47726e-17
-6.93232e-17
-6.802e-17
-5.86441e-17
-5.70934e-17
-6.36399e-17
-6.43936e-17
-6.087e-17
-6.09235e-17
-7.06699e-17
-6.15434e-17
-6.28249e-17
-6.52815e-17
-7.30866e-17
-5.51113e-17
-6.07434e-17
-6.05183e-17
-6.23314e-17
-6.69029e-17
-6.19827e-17
-6.37452e-17
-6.20812e-17
-6.44243e-17
-6.81899e-17
-6.41917e-17
-5.8848e-17
-6.05955e-17
-6.41247e-17
-6.8663e-17
-6.06487e-17
-6.01373e-17
-6.08218e-17
-6.68798e-17
-6.71669e-17
-5.57328e-17
-5.92958e-17
-6.56454e-17
-6.58236e-17
-6.42863e-17
-6.47052e-17
-6.29736e-17
-5.69565e-17
-6.57749e-17
-6.80083e-17
-6.57281e-17
-6.17439e-17
-5.85329e-17
-6.11348e-17
-6.51912e-17
-6.68727e-17
-6.25345e-17
-5.98301e-17
-6.55672e-17
-5.97951e-17
-5.8773e-17
-6.20394e-17
-6.44455e-17
-6.77926e-17
-6.25081e-17
-6.44639e-17
-6.30361e-17
-7.15459e-17
-1.18226e-16
-1.16829e-16
-1.22536e-16
-1.15856e-16
-1.21641e-16
-1.24318e-16
-1.18302e-16
-1.12821e-16
-1.08278e-16
-1.13573e-16
-1.31817e-16
-1.2271e-16
-1.06539e-16
-1.193e-16
-1.23367e-16
-1.20689e-16
-1.19082e-16
-1.13907e-16
-1.13384e-16
-1.13844e-16
-1.23146e-16
-1.14069e-16
-1.22573e-16
-1.20684e-16
-1.10174e-16
-1.27027e-16
-1.24319e-16
-1.2194e-16
-1.13056e-16
-1.02673e-16
-1.11571e-16
-1.20241e-16
-1.3232e-16
-1.183e-16
-1.13593e-16
-1.22901e-16
-1.14605e-16
-1.23339e-16
-1.21887e-16
-1.12145e-16
-1.12729e-16
-1.18691e-16
-1.18588e-16
-1.14324e-16
-1.27962e-16
-1.19428e-16
-1.12781e-16
-1.20382e-16
-1.12751e-16
-1.24538e-16
-1.25095e-16
-1.20245e-16
-1.13314e-16
-1.11821e-16
-1.14205e-16
-1.21762e-16
-1.16e-16
-1.20623e-16
-1.30111e-16
-1.22228e-16
-1.11341e-16
-1.12476e-16
-1.18804e-16
-1.12381e-16
-1.23525e-16
-1.11022e-16
-1.16261e-16
-1.22851e-16
-1.13267e-16
-1.17111e-16
-1.22179e-16
-1.15486e-16
-1.14606e-16
-1.2662e-16
-1.11565e-16
-1.21959e-16
-1.20647e-16
-1.26141e-16
-1.17911e-16
-1.13831e-16
-1.09433e-16
-1.31135e-16
-1.19318e-16
-1.20235e-16
-1.13432e-16
-1.20188e-16
-1.2438e-16
-1.15241e-16
-1.05594e-16
-1.1504e-16
-1.15081e-16
-1.19397e-16
-1.20203e-16
-1.18454e-16
-1.17239e-16
-1.2735e-16
-1.17648e-16
-1.17359e-16
-1.19232e-16
-1.04361e-16
-1.23688e-16
-1.10685e-16
-1.13194e-16
-1.1736e-16
-1.19176e-16
-1.22521e-16
-1.26386e-16
-1.19941e-16
-1.21812e-16
-1.22542e-16
-1.07204e-16
-1.16001e-16
-1.14337e-16
-1.19113e-16
-1.19564e-16
-1.20724e-16
-1.1743e-16
-1.26674e-16
-1.16244e-16
-1.02393e-16
-1.18799e-16
-1.25534e-16
-1.06699e-16
-1.24487e-16
-1.26974e-16
-1.10243e-16
-1.27778e-16
-1.20298e-16
-1.23262e-16
-1.21162e-16
-1.14015e-16
-1.21191e-16
-1.12439e-16
-1.11878e-16
-1.19034e-16
-1.11935e-16
-1.10082e-16
-1.25069e-16
-1.16989e-16
-1.29866e-16
-1.11568e-16
-1.1526e-16
-1.21897e-16
-1.04609e-16
-1.29519e-16
-1.23206e-16
-1.20155e-16
-1.11877e-16
-1.29672e-16
-1.23246e-16
-1.1039e-16
-1.13517e-16
-1.16281e-16
-1.18951e-16
-1.10625e-16
-1.24014e-16
-1.17466e-16
-1.17855e-16
-1.21577e-16
-1.17193e-16
-1.25996e-16
-1.19942e-16
-1.10982e-16
-1.22993e-16
-1.16744e-16
-1.15034e-16
-1.16651e-16
-1.28183e-16
-1.16498e-16
-1.1938e-16
-1.09099e-16
-1.19956e-16
-1.27091e-16
-1.13652e-16
-1.16381e-16
-1.19853e-16
-1.07221e-16
-1.243e-16
-1.22823e-16
-1.20405e-16
-1.1866e-16
-1.19003e-16
-1.07473e-16
-1.16817e-16
-1.28565e-16
-1.07634e-16
-1.17726e-16
-1.13259e-16
-1.25896e-16
-1.23233e-16
-1.27693e-16
-1.09649e-16
-1.18838e-16
-1.22425e-16
-1.19622e-16
-1.15412e-16
-1.11002e-16
-1.04134e-16
-1.17606e-16
-1.22825e-16
-1.16849e-16
-1.17386e-16
-1.16639e-16
-1.2319e-16
-1.18033e-16
-1.19581e-16
-1.16306e-16
-1.17372e-16
-1.1021e-16
-1.19984e-16
-1.29376e-16
-1.20182e-16
-1.20399e-16
-9.84407e-17
-1.1991e-16
-1.19535e-16
-1.22538e-16
-1.22853e-16
-1.33198e-16
-1.22805e-16
-1.13731e-16
-1.25328e-16
-1.04823e-16
-1.0999e-16
-1.27958e-16
-1.26271e-16
-1.19926e-16
-1.0994e-16
-1.15853e-16
-1.13633e-16
-1.14009e-16
-1.34433e-16
-1.24129e-16
-1.14802e-16
-1.18064e-16
-1.13842e-16
-1.17944e-16
-1.18513e-16
-1.12664e-16
-1.12258e-16
-1.08161e-16
-1.24141e-16
-1.18635e-16
-1.27496e-16
-1.17757e-16
-1.14449e-16
-1.19511e-16
-1.20453e-16
-1.09554e-16
-1.1972e-16
-1.20994e-16
-1.18668e-16
-1.19589e-16
-1.23997e-16
-1.17082e-16
-1.10766e-16
-2.49937e-16
-2.27875e-16
-2.24407e-16
-2.18004e-16
-2.03658e-16
-2.29627e-16
-2.36565e-16
-1.96761e-16
-2.11041e-16
-2.22159e-16
-2.35814e-16
-2.30363e-16
-1.87817e-16
-2.30632e-16
-2.40086e-16
-2.1638e-16
-2.44446e-16
-2.20177e-16
-2.19497e-16
-1.988e-16
-2.18178e-16
-2.25626e-16
-2.31068e-16
-2.12206e-16
-2.11134e-16
-2.29807e-16
-2.22217e-16
-2.23378e-16
-2.17127e-16
-2.03475e-16
-2.15885e-16
-2.24588e-16
-2.36195e-16
-2.05643e-16
-2.157e-16
-2.37556e-16
-2.21704e-16
-2.15854e-16
-2.13152e-16
-2.08695e-16
-2.42994e-16
-2.1171e-16
-2.19574e-16
-2.10147e-16
-2.38209e-16
-2.27958e-16
-2.07624e-16
-2.34578e-16
-2.11518e-16
-2.1829e-16
-2.14377e-16
-2.30813e-16
-2.05037e-16
-2.3201e-16
-2.19922e-16
-2.35567e-16
-2.4276e-16
-2.33175e-16
-2.25941e-16
-2.09238e-16
-2.20325e-16
-2.14689e-16
-2.15744e-16
-2.14502e-16
-2.32569e-16
-1.85762e-16
-2.29203e-16
-2.08e-16
-2.29895e-16
-2.13391e-16
-2.31102e-16
-2.21959e-16
-2.11582e-16
-2.17425e-16
-2.20898e-16
-2.39418e-16
-2.24844e-16
-2.17279e-16
-2.15253e-16
-2.37804e-16
-2.24533e-16
-2.17845e-16
-2.17975e-16
-2.24682e-16
-2.13323e-16
-2.12245e-16
-2.16905e-16
-2.37883e-16
-2.25835e-16
-1.99752e-16
-2.09838e-16
-2.16259e-16
-2.2147e-16
-2.1355e-16
-2.3436e-16
-2.23689e-16
-2.20591e-16
-2.3378e-16
-2.33771e-16
-2.20393e-16
-2.39796e-16
-2.13614e-16
-2.11667e-16
-2.1723e-16
-2.13351e-16
-2.15568e-16
-2.23421e-16
-2.14972e-16
-2.32503e-16
-2.1436e-16
-2.17631e-16
-2.34904e-16
-2.075e-16
-2.24072e-16
-2.32894e-16
-2.28253e-16
-2.24812e-16
-2.0105e-16
-2.14556e-16
-2.32396e-16
-2.22665e-16
-2.14677e-16
-2.11755e-16
-2.20663e-16
-2.47742e-16
-2.11225e-16
-2.20919e-16
-2.39034e-16
-2.18115e-16
-2.22154e-16
-2.12802e-16
-2.20904e-16
-2.14246e-16
-2.35716e-16
-2.19489e-16
-2.03093e-16
-2.2022e-16
-2.27847e-16
-2.31414e-16
-2.29078e-16
-2.16208e-16
-1.88397e-16
-2.30006e-16
-2.4205e-16
-2.18366e-16
-2.27491e-16
-2.07716e-16
-2.09785e-16
-2.48485e-16
-2.21188e-16
-2.0625e-16
-2.19382e-16
-2.17143e-16
-2.04972e-16
-2.20224e-16
-2.34062e-16
-2.05936e-16
-2.16295e-16
-2.12353e-16
-2.26036e-16
-2.22852e-16
-2.27146e-16
-2.30948e-16
-2.26854e-16
-2.18414e-16
-2.15469e-16
-2.14528e-16
-2.30756e-16
-2.11991e-16
-2.26851e-16
-2.17089e-16
-2.25279e-16
-2.15214e-16
-2.13129e-16
-2.3507e-16
-2.35768e-16
-2.06672e-16
-2.13417e-16
-2.39222e-16
-2.12823e-16
-2.10181e-16
-2.3656e-16
-2.21415e-16
-2.28565e-16
-2.35472e-16
-2.01628e-16
-2.1156e-16
-2.2308e-16
-2.24666e-16
-2.33126e-16
-2.34359e-16
-2.01295e-16
-2.25388e-16
-2.08004e-16
-2.14402e-16
-2.108e-16
-2.18063e-16
-2.44999e-16
-2.17463e-16
-2.10757e-16
-2.11392e-16
-2.12793e-16
-2.1958e-16
-2.30819e-16
-2.03933e-16
-2.42988e-16
-2.21351e-16
-2.18881e-16
-2.1752e-16
-2.30266e-16
-2.40256e-16
-2.03572e-16
-2.32603e-16
-2.15667e-16
-1.98538e-16
-2.23885e-16
-2.10716e-16
-2.4257e-16
-2.31338e-16
-2.26096e-16
-2.17025e-16
-2.11976e-16
-2.1748e-16
-2.42101e-16
-2.21032e-16
-2.1262e-16
-2.03003e-16
-2.19656e-16
-2.33006e-16
-2.17199e-16
-2.31365e-16
-2.35705e-16
-2.29297e-16
-2.03713e-16
-2.21676e-16
-2.30924e-16
-2.10901e-16
-2.20083e-16
-2.06705e-16
-2.36527e-16
-2.13242e-16
-2.26091e-16
-2.10012e-16
-2.03745e-16
-2.29593e-16
-2.25331e-16
-2.24644e-16
-2.1648e-16
-2.21117e-16
-2.35446e-16
-2.35375e-16
-1.86398e-16
-2.26198e-16
-2.18996e-16
-2.19669e-16
-2.18332e-16
-4.25096e-16
-3.85848e-16
-4.11591e-16
-3.93866e-16
-4.44471e-16
-4.31877e-16
-4.00569e-16
-3.90537e-16