# vtk DataFile Version 1.0
Electron Density - Current Sheet 
ASCII
DATASET STRUCTURED_POINTS
DIMENSIONS 256 128 1
ORIGIN 0 0 0
SPACING 0.15625 0.15625 1
POINT_DATA 32768
SCALARS rhoe float
LOOKUP_TABLE default
-1.95827e-18
-1.93963e-18
-1.91021e-18
-1.73059e-18
-1.42889e-18
-1.60779e-18
-1.93291e-18
-1.70203e-18
-1.97142e-18
-1.70493e-18
-1.74313e-18
-1.70919e-18
-1.66889e-18
-1.74289e-18
-1.80321e-18
-1.93497e-18
-1.95212e-18
-1.93198e-18
-1.83362e-18
-2.13857e-18
-1.76717e-18
-2.187e-18
-2.07071e-18
-1.91076e-18
-1.6671e-18
-1.49773e-18
-1.85714e-18
-1.69744e-18
-1.45669e-18
-2.1042e-18
-2.01302e-18
-2.00216e-18
-1.80925e-18
-1.46484e-18
-1.81717e-18
-1.83124e-18
-1.99316e-18
-1.8948e-18
-2.27894e-18
-1.94209e-18
-1.55358e-18
-1.45288e-18
-1.88876e-18
-1.86655e-18
-1.9033e-18
-1.78874e-18
-1.80344e-18
-1.61727e-18
-1.76905e-18
-1.69481e-18
-1.68369e-18
-1.94431e-18
-1.64544e-18
-1.54097e-18
-1.85059e-18
-2.21366e-18
-2.03041e-18
-1.84661e-18
-1.89329e-18
-1.6461e-18
-1.49217e-18
-1.6796e-18
-1.9347e-18
-1.57763e-18
-1.85029e-18
-1.49284e-18
-1.64441e-18
-1.66178e-18
-1.88966e-18
-1.825e-18
-1.82461e-18
-2.00056e-18
-1.69598e-18
-1.53236e-18
-1.59163e-18
-1.8155e-18
-1.75056e-18
-1.92486e-18
-1.73316e-18
-1.93842e-18
-1.81981e-18
-1.54835e-18
-1.79465e-18
-1.74733e-18
-1.92263e-18
-1.89092e-18
-1.78256e-18
-2.00392e-18
-2.09143e-18
-1.60921e-18
-1.64113e-18
-1.72793e-18
-1.90366e-18
-1.8167e-18
-1.86976e-18
-1.5697e-18
-1.90458e-18
-1.8646e-18
-1.61051e-18
-1.84628e-18
-1.57932e-18
-1.71053e-18
-1.74959e-18
-1.78802e-18
-1.74713e-18
-1.92598e-18
-2.1306e-18
-1.93297e-18
-1.88339e-18
-1.56886e-18
-1.63673e-18
-1.75723e-18
-1.90498e-18
-1.91682e-18
-1.79708e-18
-1.84192e-18
-1.82623e-18
-2.12485e-18
-1.5256e-18
-1.79248e-18
-1.88569e-18
-1.98069e-18
-1.74687e-18
-1.97463e-18
-2.01904e-18
-1.95782e-18
-2.03544e-18
-1.5868e-18
-1.56383e-18
-1.72307e-18
-1.73376e-18
-1.86595e-18
-1.81547e-18
-1.90419e-18
-2.00197e-18
-1.8666e-18
-1.72635e-18
-1.94929e-18
-1.92532e-18
-1.58334e-18
-1.83915e-18
-1.73351e-18
-1.71906e-18
-1.83331e-18
-1.61843e-18
-1.5768e-18
-1.6234e-18
-1.97611e-18
-1.9318e-18
-1.5607e-18
-1.70337e-18
-2.15254e-18
-2.08108e-18
-1.96088e-18
-2.05899e-18
-1.90968e-18
-1.95498e-18
-1.6415e-18
-1.70071e-18
-1.84538e-18
-1.83735e-18
-1.75994e-18
-1.63221e-18
-1.8168e-18
-1.91021e-18
-1.98019e-18
-1.71684e-18
-1.95327e-18
-1.71418e-18
-1.71345e-18
-1.74654e-18
-2.13341e-18
-1.97762e-18
-2.00029e-18
-2.14043e-18
-1.71184e-18
-1.67427e-18
-1.74288e-18
-1.69302e-18
-2.06977e-18
-1.80586e-18
-1.90871e-18
-1.56701e-18
-1.81707e-18
-1.94671e-18
-1.99501e-18
-1.68244e-18
-1.70482e-18
-2.01452e-18
-1.96519e-18
-1.5161e-18
-1.46554e-18
-1.72686e-18
-1.69802e-18
-1.68867e-18
-1.71839e-18
-1.52852e-18
-1.80332e-18
-1.94006e-18
-1.93903e-18
-1.86711e-18
-1.86044e-18
-1.8527e-18
-1.94331e-18
-1.84391e-18
-1.77078e-18
-1.82532e-18
-1.77677e-18
-1.53835e-18
-1.34943e-18
-1.69547e-18
-2.08558e-18
-1.64923e-18
-1.78708e-18
-1.76183e-18
-1.96961e-18
-1.86268e-18
-1.96238e-18
-2.0152e-18
-1.82371e-18
-1.80457e-18
-1.89779e-18
-1.89756e-18
-1.92149e-18
-1.89547e-18
-1.63889e-18
-1.91213e-18
-1.67764e-18
-1.73634e-18
-1.95799e-18
-1.71674e-18
-1.57114e-18
-1.61692e-18
-1.97133e-18
-2.03406e-18
-1.75581e-18
-1.59568e-18
-1.65213e-18
-1.81514e-18
-1.79163e-18
-1.91102e-18
-1.82019e-18
-1.60473e-18
-1.80916e-18
-1.88608e-18
-1.93259e-18
-1.82447e-18
-1.65544e-18
-1.97506e-18
-2.02153e-18
-1.65367e-18
-1.74518e-18
-1.45704e-18
-1.86814e-18
-2.09328e-18
-1.99384e-18
-2.78651e-18
-2.90397e-18
-2.5524e-18
-2.5874e-18
-2.68155e-18
-2.90572e-18
-3.10427e-18
-2.71938e-18
-3.22295e-18
-3.06303e-18
-2.65516e-18
-2.56913e-18
-2.92059e-18
-2.55569e-18
-2.75429e-18
-2.86977e-18
-2.84212e-18
-3.01118e-18
-2.81316e-18
-2.61148e-18
-2.83113e-18
-2.81494e-18
-2.80412e-18
-2.73182e-18
-2.77598e-18
-2.80188e-18
-2.82016e-18
-2.69962e-18
-2.61121e-18
-3.0184e-18
-3.17009e-18
-2.94989e-18
-2.7339e-18
-2.85879e-18
-2.93232e-18
-2.86811e-18
-2.92002e-18
-3.04632e-18
-3.1051e-18
-2.86776e-18
-2.83097e-18
-3.055e-18
-3.02794e-18
-2.7856e-18
-2.56371e-18
-2.60363e-18
-2.66747e-18
-2.71377e-18
-2.93931e-18
-2.92187e-18
-2.74927e-18
-2.89457e-18
-2.57971e-18
-2.56495e-18
-2.7383e-18
-2.96021e-18
-3.05841e-18
-2.84521e-18
-3.08829e-18
-3.10978e-18
-2.57263e-18
-2.95537e-18
-3.05165e-18
-2.60673e-18
-2.90103e-18
-2.92834e-18
-2.47644e-18
-2.66409e-18
-3.04549e-18
-3.02954e-18
-3.11905e-18
-2.73067e-18
-2.67168e-18
-2.46354e-18
-2.62289e-18
-3.00484e-18
-2.68664e-18
-2.7183e-18
-2.71983e-18
-3.12282e-18
-2.95218e-18
-2.73142e-18
-2.91306e-18
-2.97126e-18
-3.00821e-18
-2.98929e-18
-2.54975e-18
-3.00033e-18
-3.18684e-18
-2.81073e-18
-2.659e-18
-2.79939e-18
-2.7848e-18
-2.88094e-18
-2.77514e-18
-2.72641e-18
-2.73591e-18
-2.88424e-18
-2.85498e-18
-2.86364e-18
-2.71154e-18
-2.72575e-18
-2.88948e-18
-2.89422e-18
-3.03463e-18
-3.03899e-18
-2.79234e-18
-2.89503e-18
-2.95332e-18
-2.63069e-18
-2.54512e-18
-2.75525e-18
-2.96503e-18
-3.00196e-18
-2.72657e-18
-2.87703e-18
-2.65949e-18
-3.00301e-18
-2.56436e-18
-2.54996e-18
-2.94763e-18
-3.44877e-18
-3.06347e-18
-3.0026e-18
-3.04014e-18
-2.95389e-18
-2.86383e-18
-2.67487e-18
-2.82213e-18
-2.63409e-18
-2.75263e-18
-2.90007e-18
-2.98249e-18
-2.84528e-18
-2.77775e-18
-3.05204e-18
-2.69118e-18
-2.97178e-18
-2.82601e-18
-2.59381e-18
-2.5741e-18
-3.01646e-18
-2.6244e-18
-2.7087e-18
-2.75346e-18
-2.59857e-18
-2.94067e-18
-3.11088e-18
-3.00026e-18
-2.55457e-18
-2.86084e-18
-3.18983e-18
-2.87115e-18
-2.75201e-18
-3.20748e-18
-2.94149e-18
-2.97804e-18
-2.89996e-18
-3.0285e-18
-2.81701e-18
-3.08377e-18
-2.90323e-18
-3.13116e-18
-2.59189e-18
-2.59926e-18
-2.77238e-18
-2.7235e-18
-2.78464e-18
-2.85142e-18
-2.49083e-18
-3.10719e-18
-3.05961e-18
-2.66566e-18
-2.96136e-18
-2.86092e-18
-2.82066e-18
-2.78249e-18
-2.7973e-18
-2.96865e-18
-2.7234e-18
-2.90228e-18
-2.68731e-18
-2.49292e-18
-2.91241e-18
-2.77819e-18
-2.78164e-18
-2.60908e-18
-2.35077e-18
-2.73108e-18
-3.00606e-18
-2.62725e-18
-2.74372e-18
-2.73957e-18
-2.86335e-18
-2.82948e-18
-3.08369e-18
-2.76668e-18
-2.6406e-18
-2.97116e-18
-2.95701e-18
-2.82243e-18
-3.19006e-18
-3.10383e-18
-3.21722e-18
-3.05529e-18
-2.88558e-18
-2.8582e-18
-2.73269e-18
-2.86651e-18
-2.8198e-18
-2.97481e-18
-3.00878e-18
-2.96268e-18
-3.12528e-18
-2.74473e-18
-2.94935e-18
-3.12025e-18
-2.84911e-18
-2.74209e-18
-2.59169e-18
-2.80309e-18
-2.68188e-18
-2.68373e-18
-2.81318e-18
-2.9011e-18
-2.68545e-18
-2.59337e-18
-2.50025e-18
-2.92727e-18
-2.89623e-18
-2.70297e-18
-2.79211e-18
-2.67935e-18
-2.89732e-18
-3.03383e-18
-3.03291e-18
-2.78763e-18
-2.87977e-18
-2.78602e-18
-2.85581e-18
-2.89334e-18
-2.86994e-18
-2.52358e-18
-2.76161e-18
-2.89219e-18
-2.9718e-18
-2.48231e-18
-2.58707e-18
-2.8451e-18
-3.02356e-18
-2.98842e-18
-2.91776e-18
-2.93927e-18
-3.38531e-18
-3.14705e-18
-2.7099e-18
-5.08198e-18
-5.12942e-18
-5.04676e-18
-5.6734e-18
-5.02842e-18
-5.55584e-18
-4.8069e-18
-5.59229e-18
-5.95922e-18
-6.0181e-18
-5.22189e-18
-4.60126e-18
-5.58227e-18
-5.24976e-18
-5.00341e-18
-4.93646e-18
-5.05699e-18
-5.45102e-18
-5.4045e-18
-5.05422e-18
-4.96132e-18
-5.01277e-18
-5.21146e-18
-5.03884e-18
-5.30505e-18
-4.64919e-18
-5.05172e-18
-4.68893e-18
-5.16915e-18
-5.44883e-18
-5.03017e-18
-5.14429e-18
-5.43483e-18
-5.21493e-18
-4.96218e-18
-5.33344e-18
-5.22181e-18
-5.07986e-18
-4.95784e-18
-4.70895e-18
-4.798e-18
-5.49191e-18
-5.40258e-18
-4.99808e-18
-4.7805e-18
-4.75203e-18
-5.02558e-18
-4.99585e-18
-5.44366e-18
-5.12332e-18
-5.36075e-18
-5.63205e-18
-5.64485e-18
-5.27646e-18
-5.54934e-18
-4.77361e-18
-4.85737e-18
-4.44552e-18
-4.77023e-18
-5.3496e-18
-5.31687e-18
-5.24837e-18
-5.7231e-18
-5.39063e-18
-4.87357e-18
-5.36287e-18
-4.72626e-18
-4.95158e-18
-5.85238e-18
-5.77397e-18
-5.51079e-18
-4.96126e-18
-5.44616e-18
-4.77506e-18
-4.64362e-18
-5.26964e-18
-4.91301e-18
-5.3555e-18
-5.54026e-18
-6.03792e-18
-5.07792e-18
-5.03999e-18
-4.96755e-18
-5.57526e-18
-5.24513e-18
-5.25367e-18
-4.72645e-18
-5.50565e-18
-5.32424e-18
-5.73706e-18
-5.04267e-18
-5.03198e-18
-4.39664e-18
-4.81057e-18
-5.10999e-18
-4.79254e-18
-5.07796e-18
-4.76065e-18
-4.9032e-18
-5.0606e-18
-4.67363e-18
-4.64748e-18
-4.84406e-18
-5.27276e-18
-5.20199e-18
-5.01564e-18
-5.3961e-18
-4.80313e-18
-5.63749e-18
-5.38706e-18
-4.85276e-18
-5.05424e-18
-5.14313e-18
-5.26311e-18
-5.23721e-18
-5.19587e-18
-4.94516e-18
-4.94337e-18
-4.92213e-18
-5.31469e-18
-5.19985e-18
-6.0539e-18
-4.98895e-18
-5.13981e-18
-5.74704e-18
-5.28758e-18
-5.31234e-18
-4.81362e-18
-5.00963e-18
-5.37247e-18
-5.12292e-18
-4.96088e-18
-5.13867e-18
-5.13425e-18
-4.93363e-18
-5.0388e-18
-5.29481e-18
-5.18341e-18
-4.91931e-18
-5.46379e-18
-5.26424e-18
-5.91607e-18
-4.53647e-18
-5.26429e-18
-4.84569e-18
-4.74885e-18
-5.43105e-18
-5.08913e-18
-4.5698e-18
-4.65404e-18
-4.84794e-18
-5.35586e-18
-5.34804e-18
-5.05892e-18
-4.82473e-18
-4.93368e-18
-5.11294e-18
-5.12477e-18
-4.99939e-18
-5.31008e-18
-5.10996e-18
-4.91093e-18
-5.58051e-18
-4.94169e-18
-4.87622e-18
-5.23653e-18
-5.11799e-18
-4.81324e-18
-4.8225e-18
-4.92646e-18
-5.50402e-18
-5.13921e-18
-5.44989e-18
-4.83036e-18
-5.15647e-18
-5.17969e-18
-5.35762e-18
-5.45551e-18
-5.65546e-18
-4.95964e-18
-5.22846e-18
-5.09866e-18
-5.49368e-18
-5.35409e-18
-5.39525e-18
-5.52682e-18
-5.00003e-18
-4.56646e-18
-5.00073e-18
-5.66117e-18
-5.1271e-18
-5.20721e-18
-5.35046e-18
-5.27314e-18
-5.81189e-18
-5.31843e-18
-5.40296e-18
-4.69155e-18
-5.32164e-18
-4.95048e-18
-5.33831e-18
-4.96921e-18
-4.69417e-18
-5.53426e-18
-4.9194e-18
-5.07055e-18
-5.8569e-18
-5.54857e-18
-5.09657e-18
-5.46869e-18
-5.00327e-18
-5.09467e-18
-5.46036e-18
-4.77172e-18
-4.98368e-18
-4.9518e-18
-5.20136e-18
-4.66248e-18
-4.69521e-18
-4.88574e-18
-4.98001e-18
-5.21139e-18
-4.88485e-18
-4.87235e-18
-5.13107e-18
-5.63939e-18
-5.40383e-18
-5.09467e-18
-5.87448e-18
-5.78945e-18
-5.67724e-18
-5.3267e-18
-4.79206e-18
-5.25386e-18
-5.41127e-18
-4.95908e-18
-5.42166e-18
-5.39732e-18
-5.13805e-18
-5.09644e-18
-6.05573e-18
-5.50002e-18
-5.36921e-18
-5.08286e-18
-4.94138e-18
-5.29651e-18
-5.04451e-18
-4.96471e-18
-5.04936e-18
-5.32063e-18
-5.55844e-18
-5.12795e-18
-5.37109e-18
-5.40408e-18
-5.33535e-18
-4.72069e-18
-1.025e-17
-9.0183e-18
-1.02695e-17
-9.83828e-18
-9.61011e-18
-9.07758e-18
-9.42542e-18
-9.77081e-18
-1.09318e-17
-9.88827e-18
-9.01627e-18
-8.60509e-18
-8.39525e-18
-9.14318e-18
-9.17337e-18
-1.01758e-17
-9.31467e-18
-1.00321e-17
-1.12107e-17
-1.06491e-17
-9.98551e-18
-1.01973e-17
-9.76799e-18
-8.86336e-18
-9.60608e-18
-9.50828e-18
-1.07224e-17
-1.07809e-17
-9.15343e-18
-9.76579e-18
-1.01051e-17
-9.05487e-18
-1.05259e-17
-1.01977e-17
-9.7894e-18
-8.55389e-18
-8.19588e-18
-9.68899e-18
-9.17187e-18
-9.99408e-18
-9.73722e-18
-1.05682e-17
-1.04987e-17
-1.05372e-17
-1.03089e-17
-1.0056e-17
-9.57358e-18
-9.46446e-18
-9.59193e-18
-9.71537e-18
-9.3843e-18
-9.38961e-18
-1.03247e-17
-9.68741e-18
-1.03277e-17
-9.55087e-18
-9.09046e-18
-9.95424e-18
-9.25338e-18
-9.27518e-18
-9.534e-18
-8.99152e-18
-1.00061e-17
-9.68627e-18
-9.7344e-18
-1.01287e-17
-8.98975e-18
-9.37487e-18
-1.04639e-17
-9.98822e-18
-9.64642e-18
-8.74665e-18
-1.02181e-17
-1.1092e-17
-9.47469e-18
-9.3822e-18
-8.57304e-18
-9.08698e-18
-9.66266e-18
-9.42441e-18
-1.03667e-17
-9.40077e-18
-9.43192e-18
-1.07295e-17
-1.01376e-17
-9.50096e-18
-9.22562e-18
-9.21034e-18
-9.59613e-18
-1.03054e-17
-1.00204e-17
-9.70447e-18
-8.96353e-18
-9.88263e-18
-9.94475e-18
-9.38141e-18
-9.87681e-18
-1.00228e-17
-1.01636e-17
-9.61014e-18
-9.34355e-18
-8.8401e-18
-9.89844e-18
-8.61156e-18
-9.40144e-18
-9.81393e-18
-1.0919e-17
-1.00307e-17
-9.99712e-18
-9.86896e-18
-9.63887e-18
-9.51625e-18
-9.8022e-18
-1.00113e-17
-1.09309e-17
-1.07675e-17
-9.48847e-18
-1.00481e-17
-9.74808e-18
-8.98873e-18
-9.02978e-18
-1.0099e-17
-9.99657e-18
-9.2517e-18
-8.95773e-18
-9.12784e-18
-1.00915e-17
-9.91269e-18
-9.98682e-18
-9.87648e-18
-1.0059e-17
-9.6406e-18
-1.03377e-17
-9.55682e-18
-1.0091e-17
-9.66665e-18
-8.81726e-18
-9.46679e-18
-9.49723e-18
-1.10767e-17
-1.01299e-17
-1.02729e-17
-9.66531e-18
-9.25841e-18
-8.64393e-18
-9.32033e-18
-9.15416e-18
-9.82785e-18
-8.6857e-18
-8.94461e-18
-9.62516e-18
-9.36935e-18
-9.9248e-18
-9.82906e-18
-9.62258e-18
-9.47145e-18
-9.01696e-18
-9.23057e-18
-9.94755e-18
-1.00861e-17
-9.36738e-18
-1.01219e-17
-9.84047e-18
-9.96636e-18
-9.61252e-18
-9.66967e-18
-9.12387e-18
-1.04487e-17
-1.0281e-17
-9.05899e-18
-1.09884e-17
-1.08681e-17
-1.02837e-17
-1.0165e-17
-1.06586e-17
-9.21552e-18
-9.68941e-18
-8.87113e-18
-1.00139e-17
-8.94591e-18
-9.76569e-18
-9.75278e-18
-9.80237e-18
-1.01407e-17
-1.02901e-17
-9.99735e-18
-1.00771e-17
-9.64018e-18
-8.48127e-18
-9.30425e-18
-9.32126e-18
-1.04635e-17
-9.40329e-18
-9.75196e-18
-9.63794e-18
-1.07691e-17
-1.00832e-17
-1.02018e-17
-9.9091e-18
-8.87965e-18
-1.02864e-17
-9.8979e-18
-9.41969e-18
-9.40081e-18
-8.83839e-18
-8.53401e-18
-1.05475e-17
-1.11087e-17
-9.63025e-18
-1.02255e-17
-9.83746e-18
-9.98023e-18
-1.08775e-17
-8.90099e-18
-1.00614e-17
-9.89458e-18
-8.50415e-18
-8.93296e-18
-1.02848e-17
-1.04864e-17
-9.4477e-18
-9.97369e-18
-1.01468e-17
-9.92127e-18
-8.89228e-18
-9.70413e-18
-1.05832e-17
-9.78105e-18
-9.67249e-18
-9.51606e-18
-9.58697e-18
-9.95691e-18
-1.02279e-17
-9.82779e-18
-9.67764e-18
-9.049e-18
-9.98971e-18
-9.53173e-18
-9.09515e-18
-9.66634e-18
-1.00705e-17
-9.57066e-18
-9.76577e-18
-9.09973e-18
-9.57468e-18
-9.52369e-18
-9.57581e-18
-9.75426e-18
-9.97459e-18
-1.0973e-17
-1.01078e-17
-1.00504e-17
-9.03163e-18
-9.21972e-18
-8.9594e-18
-9.65443e-18
-2.1903e-17
-1.77646e-17
-1.8148e-17
-1.86474e-17
-1.82203e-17
-1.85089e-17
-1.63013e-17
-1.89238e-17
-1.98047e-17
-1.87594e-17
-1.68337e-17
-1.88545e-17
-1.55605e-17
-1.67012e-17
-1.87108e-17
-1.85515e-17
-1.90924e-17
-2.00588e-17
-1.93508e-17
-2.07613e-17
-1.82925e-17
-1.96157e-17
-1.83491e-17
-1.73162e-17
-1.59024e-17
-1.87426e-17
-1.88277e-17
-1.89382e-17
-1.81385e-17
-1.94905e-17
-1.90295e-17
-1.56622e-17
-1.79379e-17
-1.93158e-17
-1.93012e-17
-1.57604e-17
-1.84302e-17
-1.82152e-17
-1.79586e-17
-1.67977e-17
-1.81021e-17
-1.84162e-17
-1.63383e-17
-1.94945e-17
-1.81845e-17
-1.61178e-17
-1.86318e-17
-1.73784e-17
-1.90833e-17
-2.00737e-17
-1.83858e-17
-1.7095e-17
-1.80576e-17
-1.77635e-17
-1.79701e-17
-1.84221e-17
-1.7955e-17
-1.74751e-17
-1.77751e-17
-1.76596e-17
-1.73352e-17
-1.84963e-17
-1.88088e-17
-1.79083e-17
-2.02867e-17
-1.80086e-17
-1.89303e-17
-1.78762e-17
-1.71523e-17
-1.839e-17
-1.85991e-17
-1.75593e-17
-1.7596e-17
-1.83533e-17
-1.82317e-17
-1.73719e-17
-1.72475e-17
-1.76464e-17
-1.95652e-17
-1.76885e-17
-1.88662e-17
-1.90691e-17
-1.96688e-17
-1.80524e-17
-1.88177e-17
-1.98354e-17
-2.15678e-17
-1.94681e-17
-1.76013e-17
-1.88304e-17
-2.15126e-17
-1.80439e-17
-1.78394e-17
-1.67423e-17
-1.71081e-17
-1.8654e-17
-1.7644e-17
-1.69141e-17
-1.69365e-17
-1.93931e-17
-1.69147e-17
-1.85089e-17
-1.97785e-17
-1.79303e-17
-1.89715e-17
-1.97176e-17
-1.98106e-17
-1.80986e-17
-1.90309e-17
-1.78208e-17
-1.72389e-17
-1.57298e-17
-1.62797e-17
-1.7671e-17
-1.85101e-17
-1.78709e-17
-1.77021e-17
-1.79037e-17
-1.83825e-17
-1.88104e-17
-2.00249e-17
-2.0219e-17
-1.69349e-17
-1.5568e-17
-1.79575e-17
-1.90092e-17
-1.95602e-17
-1.73078e-17
-1.79459e-17
-1.92661e-17
-1.93933e-17
-1.83854e-17
-1.65074e-17
-1.86556e-17
-1.79519e-17
-1.71957e-17
-1.8146e-17
-1.6289e-17
-1.86726e-17
-1.9409e-17
-1.83244e-17
-2.05462e-17
-1.8186e-17
-1.78337e-17
-1.62903e-17
-1.91548e-17
-1.81733e-17
-1.84464e-17
-1.68304e-17
-1.84193e-17
-1.77678e-17
-1.97113e-17
-1.86858e-17
-1.66183e-17
-1.78248e-17
-1.6916e-17
-1.76171e-17
-1.87019e-17
-1.8593e-17
-2.08003e-17
-2.01016e-17
-1.86197e-17
-1.74573e-17
-1.9199e-17
-1.89077e-17
-1.80424e-17
-1.80375e-17
-2.0338e-17
-1.85264e-17
-1.77092e-17
-1.78077e-17
-1.97334e-17
-1.7768e-17
-1.93685e-17
-1.95129e-17
-1.74501e-17
-1.63158e-17
-1.77661e-17
-1.79082e-17
-1.90666e-17
-1.72122e-17
-1.78856e-17
-1.84307e-17
-1.98198e-17
-1.97074e-17
-1.87442e-17
-1.63565e-17
-1.71867e-17
-1.7096e-17
-1.69293e-17
-1.9471e-17
-2.08267e-17
-1.86748e-17
-1.74733e-17
-1.76113e-17
-1.76578e-17
-1.65059e-17
-1.72273e-17
-1.87465e-17
-1.95983e-17
-1.86889e-17
-1.7754e-17
-2.08759e-17
-1.96053e-17
-1.86547e-17
-1.97459e-17
-1.86913e-17
-1.96609e-17
-1.69061e-17
-1.65909e-17
-1.7306e-17
-1.79592e-17
-1.87641e-17
-1.92959e-17
-1.77996e-17
-1.82877e-17
-1.67934e-17
-1.82668e-17
-1.97053e-17
-1.86693e-17
-1.71561e-17
-1.81554e-17
-1.86454e-17
-1.66536e-17
-1.59354e-17
-1.90597e-17
-1.90072e-17
-1.98151e-17
-1.8174e-17
-1.81572e-17
-1.67085e-17
-1.95625e-17
-1.89229e-17
-1.80621e-17
-1.85332e-17
-1.7183e-17
-1.82684e-17
-1.60971e-17
-1.80042e-17
-1.76286e-17
-1.81925e-17
-1.70265e-17
-1.89813e-17
-2.01164e-17
-1.96067e-17
-1.682e-17
-1.69776e-17
-1.72231e-17
-1.76373e-17
-1.80292e-17
-1.7617e-17
-1.97504e-17
-1.79262e-17
-1.86824e-17
-1.94546e-17
-2.06299e-17
-3.75894e-17
-3.37625e-17
-3.39691e-17
-3.41423e-17
-3.1949e-17
-3.2822e-17
-3.66882e-17
-3.86421e-17
-3.6149e-17
-3.31316e-17
-3.01147e-17
-3.39732e-17
-3.22268e-17
-2.95936e-17
-3.04493e-17
-3.31707e-17
-3.75486e-17
-3.81195e-17
-3.71393e-17
-3.71576e-17
-3.45076e-17
-3.15835e-17
-3.66053e-17
-3.12436e-17
-2.84214e-17
-3.17138e-17
-3.2491e-17
-3.45526e-17
-3.36005e-17
-3.85322e-17
-3.76123e-17
-3.50079e-17
-3.41828e-17
-3.45795e-17
-3.3803e-17
-3.38462e-17
-3.09953e-17
-3.50634e-17
-3.37234e-17
-3.18392e-17
-3.40101e-17
-3.43666e-17
-3.19641e-17
-3.17831e-17
-3.45752e-17
-3.54974e-17
-3.53888e-17
-3.26375e-17
-3.31528e-17
-3.1263e-17
-3.66898e-17
-3.36219e-17
-3.46347e-17
-3.25314e-17
-3.40025e-17
-3.57084e-17
-3.51611e-17
-3.53084e-17
-3.32848e-17
-2.94545e-17
-3.23036e-17
-3.37951e-17
-3.69542e-17
-3.67043e-17
-3.40297e-17
-3.14308e-17
-3.51937e-17
-3.17975e-17
-3.64875e-17
-3.14582e-17
-3.31749e-17
-3.49812e-17
-3.55512e-17
-3.48476e-17
-3.35947e-17
-2.92554e-17
-3.53326e-17
-3.69811e-17
-3.61185e-17
-3.89888e-17
-3.53048e-17
-3.26149e-17
-3.70813e-17
-3.17087e-17
-3.32992e-17
-3.56807e-17
-3.52674e-17
-2.98077e-17
-3.26535e-17
-3.46318e-17
-3.87562e-17
-3.48144e-17
-3.36053e-17
-3.41436e-17
-3.23279e-17
-3.01751e-17
-3.38128e-17
-3.612e-17
-3.21793e-17
-3.12787e-17
-2.83796e-17
-3.13888e-17
-3.73738e-17
-3.40782e-17
-3.24239e-17
-3.57483e-17
-3.25491e-17
-3.68018e-17
-3.37761e-17
-3.69423e-17
-3.34629e-17
-3.61092e-17
-3.56398e-17
-3.19918e-17
-3.6586e-17
-3.31673e-17
-3.22196e-17
-3.27725e-17
-3.13255e-17
-3.18476e-17
-3.17293e-17
-3.17917e-17
-3.21706e-17
-3.24189e-17
-3.48203e-17
-3.45203e-17
-3.86786e-17
-3.61447e-17
-3.54071e-17
-3.05717e-17
-3.75449e-17
-3.38829e-17
-3.0552e-17
-2.9344e-17
-3.12376e-17
-3.04563e-17
-3.33921e-17
-3.16038e-17
-3.09456e-17
-3.61507e-17
-3.44631e-17
-3.41616e-17
-3.34397e-17
-3.41356e-17
-3.13329e-17
-3.67231e-17
-3.30322e-17
-3.34597e-17
-3.38624e-17
-3.43134e-17
-3.31692e-17
-3.61251e-17
-3.49587e-17
-3.06231e-17
-3.67453e-17
-3.55044e-17
-3.15086e-17
-3.21863e-17
-3.43642e-17
-3.43384e-17
-3.48482e-17
-3.43061e-17
-3.14244e-17
-3.30285e-17
-3.47121e-17
-3.46668e-17
-3.42206e-17
-3.2109e-17
-3.63795e-17
-3.57482e-17
-3.2603e-17
-3.47687e-17
-2.96673e-17
-3.36825e-17
-3.46547e-17
-3.41222e-17
-3.3311e-17
-3.50154e-17
-3.27407e-17
-3.47782e-17
-3.53352e-17
-3.11781e-17
-3.32656e-17
-3.45328e-17
-3.64009e-17
-3.30391e-17
-3.02754e-17
-3.56775e-17
-3.37261e-17
-3.3105e-17
-3.48186e-17
-3.42324e-17
-3.19209e-17
-3.18178e-17
-3.51188e-17
-3.35273e-17
-3.45489e-17
-3.46129e-17
-3.36675e-17
-3.48862e-17
-3.35892e-17
-3.3944e-17
-3.41626e-17
-3.32581e-17
-3.17628e-17
-3.173e-17
-3.39773e-17
-3.60973e-17
-3.21196e-17
-3.11813e-17
-3.28082e-17
-3.19282e-17
-3.53495e-17
-3.53065e-17
-3.89833e-17
-3.67133e-17
-3.37556e-17
-3.73106e-17
-3.75329e-17
-3.44768e-17
-3.40955e-17
-3.14371e-17
-3.6103e-17
-3.40237e-17
-3.37628e-17
-3.58366e-17
-3.71896e-17
-3.16603e-17
-3.01413e-17
-3.10618e-17
-3.3243e-17
-3.24901e-17
-3.58909e-17
-3.42253e-17
-3.39811e-17
-3.50312e-17
-3.22171e-17
-3.52609e-17
-3.50934e-17
-3.89922e-17
-3.80682e-17
-3.16153e-17
-3.43637e-17
-3.09081e-17
-3.54912e-17
-3.18994e-17
-3.38844e-17
-3.39748e-17
-3.40928e-17
-3.4817e-17
-2.93221e-17
-3.37511e-17
-3.32811e-17
-3.21182e-17
-3.25135e-17
-3.78349e-17
-6.1188e-17
-6.2218e-17
-5.95548e-17
-6.0825e-17
-6.17843e-17
-5.75534e-17
-5.70605e-17
-6.72012e-17
-7.05202e-17
-6.64004e-17
-5.85981e-17
-6.5381e-17
-6.57983e-17
-5.66346e-17
-6.08417e-17
-6.59963e-17
-6.51311e-17
-6.36064e-17
-6.38355e-17
-6.40742e-17
-6.49253e-17
-6.36911e-17
-6.41623e-17
-6.33085e-17
-6.53983e-17
-6.21693e-17
-6.03564e-17
-6.88649e-17
-5.62828e-17
-6.3784e-17
-6.9614e-17
-6.06027e-17
-6.13398e-17
-6.24674e-17
-6.2002e-17
-6.08434e-17
-5.86931e-17
-5.9799e-17
-6.24343e-17
-6.66822e-17
-5.92338e-17
-7.03248e-17
-6.51216e-17
-5.72193e-17
-6.55137e-17
-7.29476e-17
-5.6333e-17
-5.71064e-17
-6.43839e-17
-6.28031e-17
-6.34025e-17
-6.60699e-17
-6.67859e-17
-6.19798e-17
-6.76152e-17
-6.66679e-17
-6.62672e-17
-6.97496e-17
-6.46718e-17
-5.56268e-17
-5.73273e-17
-6.20924e-17
-6.11901e-17
-6.40408e-17
-6.33073e-17
-6.70584e-17
-6.29675e-17
-6.08934e-17
-6.18311e-17
-6.67869e-17
-6.32468e-17
-6.62903e-17
-6.43234e-17
-6.23536e-17
-6.26962e-17
-5.87209e-17
-5.77129e-17
-6.14287e-17
-6.66966e-17
-5.96326e-17
-6.48425e-17
-7.17148e-17
-5.97745e-17
-5.97974e-17
-5.92509e-17
-6.32248e-17
-6.01145e-17
-5.75723e-17
-6.84357e-17
-6.42823e-17
-6.36312e-17
-6.5252e-17
-6.82529e-17
-6.21069e-17
-5.50016e-17
-6.13828e-17
-6.68812e-17
-6.36071e-17
-6.643e-17
-6.29707e-17
-6.95606e-17
-5.90633e-17
-6.45017e-17
-6.02534e-17
-6.68052e-17
-6.731e-17
-6.82704e-17
-6.70585e-17
-6.51246e-17
-6.60059e-17
-5.94193e-17
-6.48568e-17
-5.95994e-17
-5.89735e-17
-6.34952e-17
-6.15844e-17
-6.67438e-17
-6.27855e-17
-5.99569e-17
-6.51467e-17
-5.92708e-17
-6.3116e-17
-6.93702e-17
-6.27461e-17
-6.1512e-17
-6.62482e-17
-7.06438e-17
-6.30242e-17
-6.29575e-17
-6.33825e-17
-6.59802e-17
-6.92622e-17
-6.58515e-17
-6.48847e-17
-6.32134e-17
-5.8281e-17
-6.35431e-17
-6.1319e-17
-5.58178e-17
-6.66175e-17
-6.41268e-17
-6.13873e-17
-5.72745e-17
-6.5222e-17
-6.90787e-17
-6.59056e-17
-6.67706e-17
-6.48421e-17
-6.47339e-17
-6.63231e-17
-6.26066e-17
-6.0147e-17
-6.59609e-17
-6.30516e-17
-6.16601e-17
-6.18411e-17
-6.16964e-17
-5.84089e-17
-6.44181e-17
-6.42392e-17
-6.27799e-17
-5.90427e-17
-6.02407e-17
-6.10798e-17
-6.99237e-17
-7.09856e-17
-6.57267e-17
-5.90493e-17
-6.50145e-17
-6.6172e-17
-6.54244e-17
-6.23302e-17
-6.00229e-17
-6.10201e-17
-6.7515e-17
-6.66342e-17
-6.38505e-17
-6.50896e-17
-6.23354e-17
-6.07241e-17
-6.78007e-17
-6.22818e-17
-6.49389e-17
-6.19322e-17
-6.16029e-17
-6.8022e-17
-5.73398e-17
-6.33006e-17
-6.8068e-17
-6.37269e-17
-6.18232e-17
-6.94864e-17
-6.49781e-17
-6.20807e-17
-6.50399e-17
-6.36305e-17
-6.68296e-17
-5.59259e-17
-5.72296e-17
-6.30082e-17
-5.98778e-17
-6.57966e-17
-6.48799e-17
-6.02117e-17
-6.60037e-17
-6.30247e-17
-6.12141e-17
-6.81303e-17
-6.09732e-17
-5.606e-17
-6.37639e-17
-6.37715e-17
-6.17532e-17
-6.29284e-17
-6.30511e-17
-6.71457e-17
-6.39716e-17
-6.23895e-17
-5.79159e-17
-5.73032e-17
-6.26132e-17
-6.48672e-17
-5.85123e-17
-6.17548e-17
-6.43263e-17
-6.2956e-17
-6.88972e-17
-6.43723e-17
-5.64183e-17
-5.77182e-17
-5.98687e-17
-6.4472e-17
-7.28967e-17
-7.16231e-17
-6.51982e-17
-6.24543e-17
-5.59306e-17
-5.84534e-17
-6.68068e-17
-6.7745e-17
-6.27919e-17
-5.80999e-17
-5.88372e-17
-5.58227e-17
-6.04461e-17
-5.99009e-17
-5.81359e-17
-5.90888e-17
-6.28104e-17
-6.77071e-17
-6.30049e-17
-6.62834e-17
-6.34027e-17
-5.88905e-17
-6.30981e-17
-6.70444e-17
-1.27827e-16
-1.28801e-16
-1.12568e-16
-1.09836e-16
-1.19347e-16
-1.16096e-16
-1.14832e-16
-1.32603e-16
-1.18237e-16
-1.19521e-16
-1.19297e-16
-1.16592e-16
-1.15419e-16
-1.1609e-16
-1.10434e-16
-1.23847e-16
-1.18792e-16
-1.15521e-16
-1.17388e-16
-1.10086e-16
-1.21797e-16
-1.15663e-16
-1.18371e-16
-1.30429e-16
-1.24804e-16
-1.17854e-16
-1.18637e-16
-1.26775e-16
-1.1309e-16
-1.20773e-16
-1.00466e-16
-1.00953e-16
-1.10491e-16
-1.14378e-16
-1.36909e-16
-1.2366e-16
-1.18639e-16
-1.24515e-16
-1.13598e-16
-1.22911e-16
-1.38608e-16
-1.31362e-16
-1.25964e-16
-1.21261e-16
-1.10466e-16
-1.07715e-16
-1.14136e-16
-1.13564e-16
-1.16054e-16
-1.24918e-16
-1.21451e-16
-1.11091e-16
-1.23849e-16
-1.27471e-16
-1.20138e-16
-1.21224e-16
-1.17078e-16
-1.24608e-16
-1.16437e-16
-1.13952e-16
-1.02726e-16
-1.10005e-16
-1.06737e-16
-1.18618e-16
-1.20187e-16
-1.22207e-16
-1.16667e-16
-1.07914e-16
-1.13053e-16
-1.16578e-16
-1.1513e-16
-1.25808e-16
-1.19008e-16
-1.26835e-16
-1.24471e-16
-1.17841e-16
-1.06246e-16
-1.13257e-16
-1.14579e-16
-1.0972e-16
-1.17537e-16
-1.28443e-16
-1.25621e-16
-1.09309e-16
-9.88248e-17
-1.15656e-16
-1.13678e-16
-1.21726e-16
-1.26035e-16
-1.19917e-16
-1.14364e-16
-1.15126e-16
-1.24834e-16
-1.30573e-16
-1.0845e-16
-1.168e-16
-1.1421e-16
-1.06677e-16
-1.09315e-16
-1.18781e-16
-1.2007e-16
-1.10103e-16
-1.1897e-16
-1.06891e-16
-1.08676e-16
-1.16771e-16
-1.29039e-16
-1.28297e-16
-1.15874e-16
-1.21453e-16
-1.20036e-16
-1.28532e-16
-1.17693e-16
-1.06446e-16
-1.07986e-16
-1.23967e-16
-1.19899e-16
-1.15384e-16
-1.1421e-16
-1.28854e-16
-1.19641e-16
-1.28733e-16
-1.32909e-16
-1.10452e-16
-1.232e-16
-1.16406e-16
-1.26334e-16
-1.21804e-16
-1.23894e-16
-1.24043e-16
-1.27249e-16
-1.23049e-16
-1.08492e-16
-1.16261e-16
-1.17358e-16
-1.11756e-16
-1.12322e-16
-1.21594e-16
-1.14217e-16
-1.14402e-16
-1.09848e-16
-1.11757e-16
-1.21328e-16
-1.29892e-16
-1.19755e-16
-1.22119e-16
-1.13543e-16
-1.18317e-16
-1.23032e-16
-1.2434e-16
-1.3231e-16
-1.16464e-16
-1.15867e-16
-1.12034e-16
-1.13477e-16
-1.14664e-16
-1.15802e-16
-1.20094e-16
-1.34321e-16
-1.38306e-16
-1.23953e-16
-1.03004e-16
-1.11025e-16
-1.16054e-16
-1.24065e-16
-1.29694e-16
-1.10357e-16
-1.13787e-16
-1.21621e-16
-1.13189e-16
-1.08011e-16
-1.06128e-16
-1.16638e-16
-1.21708e-16
-1.28567e-16
-1.23532e-16
-1.08866e-16
-1.05439e-16
-1.15007e-16
-1.33385e-16
-1.21291e-16
-1.3535e-16
-1.13575e-16
-1.06039e-16
-1.09477e-16
-1.15052e-16
-1.08646e-16
-1.16014e-16
-1.21878e-16
-1.36682e-16
-1.42068e-16
-1.26851e-16
-1.17393e-16
-1.27395e-16
-1.07042e-16
-1.04635e-16
-1.12239e-16
-1.04082e-16
-1.11962e-16
-1.09828e-16
-1.10812e-16
-1.11491e-16
-1.14145e-16
-1.23508e-16
-1.22724e-16
-1.13285e-16
-1.07038e-16
-1.33045e-16
-1.21117e-16
-1.05514e-16
-1.10583e-16
-1.1998e-16
-1.12582e-16
-1.19636e-16
-1.23804e-16
-1.28797e-16
-1.17985e-16
-1.21722e-16
-1.22359e-16
-1.26976e-16
-1.14664e-16
-1.19343e-16
-1.14624e-16
-1.24782e-16
-1.2246e-16
-1.17912e-16
-1.13428e-16
-1.27149e-16
-1.20476e-16
-1.19361e-16
-1.17542e-16
-1.34469e-16
-1.24095e-16
-1.25334e-16
-1.18818e-16
-1.23597e-16
-1.1242e-16
-1.1558e-16
-1.1566e-16
-1.24248e-16
-1.14804e-16
-1.06434e-16
-1.11906e-16
-1.10851e-16
-1.21004e-16
-1.25217e-16
-1.27905e-16
-1.1238e-16
-9.34497e-17
-1.25059e-16
-1.24063e-16
-1.06785e-16
-1.08947e-16
-1.19705e-16
-1.26889e-16
-1.26999e-16
-2.11638e-16
-2.31036e-16
-2.10697e-16
-2.09729e-16
-2.48894e-16
-2.37351e-16
-2.24761e-16
-2.33045e-16
-2.25236e-16
-2.15445e-16
-2.28528e-16
-2.49016e-16
-2.10552e-16
-2.01992e-16
-2.2329e-16
-2.21049e-16
-2.24114e-16
-2.30579e-16
-2.2561e-16
-2.32281e-16
-2.05534e-16
-2.11229e-16
-2.15267e-16
-2.28692e-16
-2.19761e-16
-1.99367e-16
-2.15655e-16
-1.94571e-16
-2.13745e-16
-2.12379e-16
-2.337e-16
-2.14736e-16
-2.16417e-16
-2.06035e-16
-2.24912e-16
-2.24772e-16
-2.22006e-16
-2.16924e-16
-2.24587e-16
-2.07788e-16
-2.52825e-16
-2.16021e-16
-2.26656e-16
-2.21843e-16
-2.28865e-16
-2.40552e-16
-2.38594e-16
-2.0462e-16
-2.1198e-16
-2.39545e-16
-2.28126e-16
-2.26434e-16
-2.24365e-16
-2.24353e-16
-2.21211e-16
-2.2954e-16
-2.31799e-16
-2.3508e-16
-2.13979e-16
-2.25094e-16
-1.97718e-16
-2.16236e-16
-2.07393e-16
-2.06773e-16
-2.07327e-16
-2.35491e-16
-2.19168e-16
-2.18517e-16
-2.24819e-16
-2.30816e-16
-2.25488e-16
-2.30023e-16
-2.39381e-16
-2.17248e-16
-2.22304e-16
-2.15965e-16
-2.22743e-16
-2.18397e-16
-2.11765e-16
-2.16369e-16
-2.24334e-16
-2.42038e-16
-2.27812e-16
-2.22075e-16
-2.29077e-16
-2.20395e-16
-2.22882e-16
-2.00882e-16
-2.10441e-16
-2.25178e-16
-2.4061e-16
-2.21049e-16
-2.13576e-16
-2.06495e-16
-2.06078e-16
-2.37158e-16
-2.33512e-16
-2.14244e-16
-2.3226e-16
-2.25081e-16
-2.19188e-16
-2.21409e-16
-2.3628e-16
-2.1521e-16
-2.15931e-16
-2.1027e-16
-1.9987e-16
-2.27371e-16
-2.10013e-16
-2.1462e-16
-2.44783e-16
-2.35646e-16
-2.22716e-16
-1.95384e-16
-2.10059e-16
-2.27251e-16
-2.0206e-16
-2.14823e-16
-2.16781e-16
-1.9917e-16
-1.96252e-16
-2.32144e-16
-2.16626e-16
-2.05614e-16
-2.13457e-16
-2.3629e-16
-2.49873e-16
-2.22524e-16
-2.41155e-16
-2.59164e-16
-2.26078e-16
-2.08541e-16
-2.23067e-16
-2.48497e-16
-2.09929e-16
-1.80254e-16
-2.01337e-16
-2.34851e-16
-2.26947e-16
-2.37186e-16
-2.32046e-16
-2.12017e-16
-2.00078e-16
-2.17173e-16
-2.19594e-16
-2.22844e-16
-2.02155e-16
-2.38061e-16
-2.35439e-16
-2.16916e-16
-2.10212e-16
-2.15519e-16
-2.21842e-16
-2.08831e-16
-2.03318e-16
-2.03495e-16
-2.10436e-16
-1.97246e-16
-2.29409e-16
-2.1616e-16
-2.28424e-16
-2.27963e-16
-2.23841e-16
-2.23317e-16
-2.38137e-16
-2.47769e-16
-2.02673e-16
-2.16292e-16
-2.21839e-16
-2.26471e-16
-2.09429e-16
-2.27551e-16
-2.43821e-16
-2.40813e-16
-2.27119e-16
-2.26674e-16
-2.10046e-16
-2.15966e-16
-2.32224e-16
-2.47258e-16
-2.12521e-16
-2.01093e-16
-2.42675e-16
-2.12533e-16
-2.06939e-16
-2.28441e-16
-2.26456e-16
-2.47364e-16
-2.43407e-16
-2.13957e-16
-2.17955e-16
-2.01096e-16
-2.04205e-16
-2.25e-16
-2.16125e-16
-2.13301e-16
-1.9258e-16
-2.05032e-16
-2.12854e-16
-2.03739e-16
-2.20645e-16
-2.33971e-16
-2.00404e-16
-2.09422e-16
-2.02645e-16
-2.35858e-16
-1.95698e-16
-2.36411e-16
-2.25959e-16
-2.05088e-16
-2.39897e-16
-2.14944e-16
-2.25969e-16
-2.31533e-16
-2.33261e-16
-2.45189e-16
-2.49994e-16
-2.23378e-16
-2.37044e-16
-2.09758e-16
-2.42245e-16
-2.16014e-16
-2.16697e-16
-2.21318e-16
-2.20154e-16
-2.22513e-16
-2.13638e-16
-2.37933e-16
-2.27881e-16
-2.43033e-16
-2.16575e-16
-2.33106e-16
-2.16059e-16
-2.06834e-16
-2.32017e-16
-2.30769e-16
-2.28841e-16
-2.19243e-16
-2.11619e-16
-2.23545e-16
-2.21325e-16
-2.06097e-16
-2.08313e-16
-2.12619e-16
-2.18324e-16
-2.21576e-16
-2.26885e-16
-2.02186e-16
-2.03356e-16
-2.28713e-16
-2.37218e-16
-2.12516e-16
-2.29157e-16
-2.23171e-16
-2.37638e-16
-2.37285e-16
-3.9428e-16
-3.93119e-16
-4.15542e-16
-3.84854e-16
-4.17611e-16