# vtk DataFile Version 1.0
Electron Density - Current Sheet 
ASCII
DATASET STRUCTURED_POINTS
DIMENSIONS 256 128 1
ORIGIN 0 0 0
SPACING 0.15625 0.15625 1
POINT_DATA 32768
SCALARS rhoe float
LOOKUP_TABLE default
-1.87574e-18
-1.60807e-18
-1.80511e-18
-1.68054e-18
-1.98094e-18
-1.91983e-18
-1.70054e-18
-1.652e-18
-1.78537e-18
-1.73517e-18
-1.94806e-18
-1.87917e-18
-1.71581e-18
-1.7486e-18
-2.08088e-18
-1.82165e-18
-1.73148e-18
-1.83531e-18
-1.91271e-18
-1.87698e-18
-1.98664e-18
-2.03354e-18
-1.67452e-18
-2.10807e-18
-2.12461e-18
-1.85499e-18
-1.54088e-18
-1.59456e-18
-1.7492e-18
-1.92343e-18
-1.92246e-18
-1.84538e-18
-1.52901e-18
-1.97502e-18
-1.84206e-18
-1.85287e-18
-1.73003e-18
-1.88929e-18
-1.99123e-18
-1.8836e-18
-1.53063e-18
-1.94219e-18
-1.73967e-18
-1.65308e-18
-1.76076e-18
-1.72239e-18
-1.95327e-18
-1.88714e-18
-1.85774e-18
-1.87612e-18
-2.02568e-18
-1.88102e-18
-1.98526e-18
-1.6657e-18
-1.48323e-18
-1.90862e-18
-1.67534e-18
-1.7285e-18
-1.43799e-18
-1.82346e-18
-1.57683e-18
-1.58271e-18
-2.40695e-18
-1.91941e-18
-1.67128e-18
-1.54475e-18
-1.66714e-18
-1.74195e-18
-1.6977e-18
-1.93326e-18
-1.84195e-18
-1.64577e-18
-1.85856e-18
-1.99096e-18
-1.70028e-18
-1.88417e-18
-1.80144e-18
-1.85586e-18
-1.62755e-18
-1.68287e-18
-1.96456e-18
-2.06606e-18
-1.86515e-18
-1.93337e-18
-1.85221e-18
-1.90977e-18
-1.65423e-18
-1.62395e-18
-1.73963e-18
-2.00528e-18
-1.79361e-18
-1.67791e-18
-2.07182e-18
-1.68233e-18
-1.86981e-18
-1.66145e-18
-2.10348e-18
-1.70404e-18
-1.76002e-18
-1.78151e-18
-1.53321e-18
-1.97335e-18
-1.80894e-18
-1.73314e-18
-1.82932e-18
-1.9145e-18
-1.86729e-18
-1.87147e-18
-1.83688e-18
-2.11684e-18
-1.9538e-18
-1.86547e-18
-1.54896e-18
-1.59965e-18
-1.70402e-18
-2.03416e-18
-1.94311e-18
-1.80243e-18
-1.91217e-18
-1.83986e-18
-2.1379e-18
-1.87302e-18
-1.75386e-18
-1.5405e-18
-1.82688e-18
-1.95634e-18
-1.95055e-18
-1.57121e-18
-1.5532e-18
-1.95441e-18
-1.95168e-18
-1.53792e-18
-2.11605e-18
-1.81218e-18
-1.89064e-18
-1.93943e-18
-1.73847e-18
-1.73727e-18
-1.70786e-18
-1.90422e-18
-1.79901e-18
-1.80811e-18
-1.82042e-18
-1.74913e-18
-1.74321e-18
-1.50123e-18
-1.64173e-18
-1.95586e-18
-1.96183e-18
-2.05852e-18
-1.87521e-18
-1.79682e-18
-1.86521e-18
-1.95029e-18
-1.78495e-18
-1.9909e-18
-2.01679e-18
-1.75562e-18
-1.75971e-18
-1.92793e-18
-1.9844e-18
-1.70807e-18
-1.84126e-18
-1.89327e-18
-2.01934e-18
-2.01935e-18
-1.8989e-18
-1.81138e-18
-1.50967e-18
-1.59966e-18
-2.03766e-18
-1.90528e-18
-1.83565e-18
-1.68105e-18
-2.01469e-18
-2.00391e-18
-1.71799e-18
-1.88812e-18
-1.99295e-18
-2.23648e-18
-1.74426e-18
-1.75423e-18
-1.8283e-18
-2.08758e-18
-1.64983e-18
-1.64633e-18
-1.76626e-18
-1.71104e-18
-1.71398e-18
-2.04622e-18
-1.68298e-18
-1.92506e-18
-1.99825e-18
-1.602e-18
-1.48871e-18
-1.55566e-18
-1.71107e-18
-1.75958e-18
-1.93336e-18
-1.97406e-18
-1.68305e-18
-1.73188e-18
-1.65279e-18
-1.89521e-18
-2.00804e-18
-1.6931e-18
-1.6567e-18
-1.53155e-18
-1.73072e-18
-1.94098e-18
-1.93042e-18
-1.84341e-18
-1.73429e-18
-1.68886e-18
-1.61017e-18
-1.83178e-18
-1.70732e-18
-1.7674e-18
-2.12912e-18
-1.88065e-18
-1.85042e-18
-1.76455e-18
-1.87523e-18
-1.85533e-18
-1.69991e-18
-1.9135e-18
-1.87642e-18
-1.9818e-18
-1.81052e-18
-1.71341e-18
-1.65123e-18
-1.98622e-18
-2.0933e-18
-1.73081e-18
-1.77013e-18
-1.84022e-18
-1.86863e-18
-1.82116e-18
-1.80827e-18
-1.68895e-18
-1.84957e-18
-1.72538e-18
-1.7581e-18
-1.8324e-18
-1.78607e-18
-1.90771e-18
-1.82418e-18
-1.80176e-18
-1.6674e-18
-2.15207e-18
-1.76562e-18
-1.55702e-18
-1.98638e-18
-1.67135e-18
-1.76095e-18
-1.78677e-18
-2.92142e-18
-2.64795e-18
-2.6648e-18
-3.24819e-18
-3.06346e-18
-2.70552e-18
-2.89819e-18
-2.73983e-18
-2.59533e-18
-2.61868e-18
-3.0447e-18
-2.9835e-18
-2.69155e-18
-2.6974e-18
-2.96892e-18
-2.70169e-18
-2.95343e-18
-2.96148e-18
-2.76696e-18
-2.89943e-18
-2.60214e-18
-2.74216e-18
-2.73575e-18
-3.16395e-18
-2.96801e-18
-2.51302e-18
-2.66948e-18
-2.53464e-18
-2.85878e-18
-3.17623e-18
-2.79909e-18
-2.9257e-18
-2.57069e-18
-2.77288e-18
-3.15454e-18
-2.86817e-18
-2.98091e-18
-2.99046e-18
-2.94562e-18
-2.83349e-18
-2.62824e-18
-2.85455e-18
-2.79098e-18
-2.6451e-18
-2.90393e-18
-2.83355e-18
-2.91223e-18
-2.89003e-18
-2.65073e-18
-2.75023e-18
-2.76478e-18
-3.0318e-18
-3.06993e-18
-2.65805e-18
-2.56321e-18
-2.81091e-18
-2.9594e-18
-2.6776e-18
-2.67071e-18
-3.09523e-18
-2.86627e-18
-2.92763e-18
-2.90431e-18
-2.67094e-18
-3.09398e-18
-2.80693e-18
-2.66404e-18
-2.79827e-18
-2.79477e-18
-2.87623e-18
-3.09719e-18
-2.8925e-18
-2.80287e-18
-2.69647e-18
-2.98115e-18
-2.95632e-18
-2.56029e-18
-2.889e-18
-2.85588e-18
-2.56593e-18
-2.6806e-18
-2.76277e-18
-2.86734e-18
-2.88362e-18
-2.46767e-18
-2.83646e-18
-2.85507e-18
-2.76968e-18
-3.16657e-18
-3.21756e-18
-2.71033e-18
-2.9837e-18
-2.6267e-18
-2.7992e-18
-2.99323e-18
-2.6905e-18
-2.85821e-18
-3.00725e-18
-2.464e-18
-2.77293e-18
-2.82535e-18
-2.99761e-18
-3.09423e-18
-3.01251e-18
-2.61708e-18
-2.49852e-18
-2.75187e-18
-3.0605e-18
-2.91325e-18
-2.86345e-18
-2.68432e-18
-2.93453e-18
-2.75397e-18
-2.8292e-18
-2.38901e-18
-2.89319e-18
-3.05775e-18
-2.63954e-18
-2.83713e-18
-2.80324e-18
-3.3173e-18
-2.9821e-18
-2.98217e-18
-2.82985e-18
-2.78943e-18
-2.84498e-18
-3.10323e-18
-3.23427e-18
-2.45898e-18
-2.88137e-18
-2.94334e-18
-2.67293e-18
-2.91291e-18
-2.55083e-18
-2.89315e-18
-3.18498e-18
-2.88818e-18
-2.57085e-18
-2.79722e-18
-2.65308e-18
-2.62942e-18
-2.72133e-18
-3.01137e-18
-3.19259e-18
-2.99538e-18
-2.60241e-18
-2.82655e-18
-2.70858e-18
-3.02676e-18
-3.0337e-18
-2.8054e-18
-2.59039e-18
-2.73126e-18
-2.95671e-18
-3.01873e-18
-3.01835e-18
-2.97188e-18
-2.91624e-18
-2.94954e-18
-2.89513e-18
-2.92073e-18
-2.69249e-18
-2.91666e-18
-2.69169e-18
-2.92477e-18
-2.87817e-18
-2.66969e-18
-2.65561e-18
-2.8709e-18
-3.07794e-18
-2.84827e-18
-3.06104e-18
-2.72005e-18
-2.8371e-18
-2.91742e-18
-2.61261e-18
-2.88972e-18
-2.94684e-18
-2.75958e-18
-2.81722e-18
-2.45391e-18
-2.95552e-18
-2.86986e-18
-3.01248e-18
-2.53548e-18
-2.59068e-18
-2.64173e-18
-2.60659e-18
-2.83648e-18
-3.18374e-18
-2.39013e-18
-2.75644e-18
-2.96205e-18
-2.69295e-18
-2.90085e-18
-2.85256e-18
-3.09545e-18
-2.79538e-18
-2.6234e-18
-2.99933e-18
-2.68839e-18
-2.9365e-18
-2.81546e-18
-2.79215e-18
-2.92696e-18
-2.90211e-18
-2.85449e-18
-2.82961e-18
-3.31587e-18
-2.85643e-18
-3.03722e-18
-3.09565e-18
-2.63533e-18
-2.71342e-18
-2.9357e-18
-2.86499e-18
-2.91168e-18
-2.76823e-18
-2.79349e-18
-2.98677e-18
-2.84361e-18
-2.60951e-18
-2.72555e-18
-3.21998e-18
-2.86395e-18
-2.80694e-18
-2.71457e-18
-3.13552e-18
-2.55681e-18
-2.7666e-18
-2.53157e-18
-2.76101e-18
-2.75936e-18
-2.82293e-18
-2.72368e-18
-2.78469e-18
-3.01456e-18
-3.04163e-18
-2.87539e-18
-2.75457e-18
-2.89494e-18
-2.4477e-18
-2.94882e-18
-2.7407e-18
-2.81363e-18
-2.83945e-18
-2.7481e-18
-2.82816e-18
-2.74324e-18
-2.89084e-18
-2.84284e-18
-2.96252e-18
-2.90926e-18
-2.80539e-18
-3.1241e-18
-3.04346e-18
-5.02033e-18
-5.46826e-18
-5.37367e-18
-5.1272e-18
-5.74423e-18
-5.2415e-18
-5.07878e-18
-5.14649e-18
-4.71087e-18
-5.01634e-18
-5.01712e-18
-5.00506e-18
-5.63173e-18
-5.88593e-18
-5.78524e-18
-5.34764e-18
-5.06459e-18
-5.41758e-18
-4.57772e-18
-4.87092e-18
-4.88572e-18
-4.86801e-18
-5.3659e-18
-5.62584e-18
-5.01847e-18
-5.03644e-18
-5.19218e-18
-5.03107e-18
-4.82631e-18
-5.06174e-18
-4.63708e-18
-5.11296e-18
-5.13253e-18
-5.02501e-18
-5.34041e-18
-5.3167e-18
-5.57123e-18
-4.8948e-18
-5.20312e-18
-5.35825e-18
-5.35676e-18
-4.79539e-18
-5.12638e-18
-5.36765e-18
-5.45547e-18
-5.68462e-18
-5.63564e-18
-4.78553e-18
-4.92222e-18
-5.0993e-18
-5.26024e-18
-4.86565e-18
-5.10035e-18
-4.93095e-18
-5.0048e-18
-5.61624e-18
-5.43478e-18
-5.06136e-18
-5.28484e-18
-5.62202e-18
-5.43793e-18
-5.06344e-18
-5.42397e-18
-4.96898e-18
-5.43769e-18
-5.11078e-18
-4.92739e-18
-5.01793e-18
-5.15194e-18
-5.1922e-18
-4.83468e-18
-4.26129e-18
-5.88014e-18
-4.99711e-18
-5.01085e-18
-5.34404e-18
-5.75323e-18
-5.3637e-18
-5.43945e-18
-5.19178e-18
-5.3237e-18
-5.32606e-18
-4.90041e-18
-4.66325e-18
-5.05289e-18
-5.22256e-18
-4.87487e-18
-4.94043e-18
-5.08901e-18
-5.32527e-18
-5.25746e-18
-5.28383e-18
-4.62538e-18
-5.18534e-18
-5.82303e-18
-5.1601e-18
-4.72605e-18
-5.34018e-18
-4.98165e-18
-4.86709e-18
-4.65195e-18
-4.65367e-18
-4.95811e-18
-5.84652e-18
-5.0198e-18
-4.30967e-18
-4.93802e-18
-5.01134e-18
-5.23235e-18
-5.26745e-18
-5.27409e-18
-5.59674e-18
-5.57781e-18
-5.07793e-18
-4.37844e-18
-5.16972e-18
-5.59402e-18
-5.24267e-18
-4.7487e-18
-4.70545e-18
-5.50761e-18
-5.66771e-18
-5.30194e-18
-4.85299e-18
-5.16162e-18
-5.08194e-18
-5.38583e-18
-5.7148e-18
-4.68099e-18
-5.08441e-18
-5.24311e-18
-5.15117e-18
-5.06913e-18
-5.12361e-18
-5.01284e-18
-5.28768e-18
-5.04366e-18
-4.7253e-18
-5.40806e-18
-5.34288e-18
-5.01317e-18
-4.71689e-18
-5.40173e-18
-5.57925e-18
-4.83676e-18
-5.19051e-18
-5.26334e-18
-5.20404e-18
-4.83431e-18
-4.91523e-18
-5.19716e-18
-5.13819e-18
-4.85683e-18
-4.91293e-18
-4.71957e-18
-4.7723e-18
-4.82748e-18
-5.38664e-18
-5.57723e-18
-5.24888e-18
-5.96106e-18
-5.35843e-18
-4.90833e-18
-4.95182e-18
-4.75306e-18
-4.83182e-18
-5.34673e-18
-5.26491e-18
-5.23605e-18
-4.94253e-18
-5.11789e-18
-5.24405e-18
-5.47131e-18
-5.26143e-18
-4.52413e-18
-4.88116e-18
-5.36409e-18
-5.5059e-18
-5.28692e-18
-4.94835e-18
-4.53083e-18
-5.56056e-18
-4.9185e-18
-5.23391e-18
-5.62349e-18
-5.50131e-18
-4.82215e-18
-5.84139e-18
-5.19838e-18
-4.8779e-18
-4.78034e-18
-4.81798e-18
-5.83296e-18
-5.68782e-18
-5.19705e-18
-5.2623e-18
-5.26989e-18
-5.39676e-18
-4.68884e-18
-5.225e-18
-5.46407e-18
-5.07477e-18
-4.83614e-18
-5.2685e-18
-5.26138e-18
-5.58031e-18
-5.09437e-18
-5.03541e-18
-5.06776e-18
-5.28817e-18
-4.79142e-18
-5.61462e-18
-5.16488e-18
-4.5687e-18
-4.92224e-18
-4.92129e-18
-5.10055e-18
-5.77099e-18
-5.17518e-18
-4.81226e-18
-5.02289e-18
-5.0397e-18
-5.31187e-18
-5.35949e-18
-5.62301e-18
-4.9015e-18
-5.11364e-18
-6.01352e-18
-5.47042e-18
-5.35368e-18
-5.21183e-18
-4.84807e-18
-5.4488e-18
-4.87384e-18
-4.86495e-18
-5.15223e-18
-5.61719e-18
-5.61329e-18
-5.24264e-18
-5.35571e-18
-5.57809e-18
-5.14194e-18
-5.00342e-18
-5.11102e-18
-5.68009e-18
-5.72277e-18
-5.24586e-18
-4.79496e-18
-4.88312e-18
-5.20293e-18
-5.17859e-18
-5.55192e-18
-5.06597e-18
-5.07616e-18
-5.28841e-18
-5.72096e-18
-9.69947e-18
-1.03488e-17
-9.20603e-18
-9.15023e-18
-1.01665e-17
-9.68391e-18
-9.59459e-18
-8.79915e-18
-1.01805e-17
-9.78292e-18
-8.47584e-18
-9.45958e-18
-1.09954e-17
-1.04794e-17
-1.01266e-17
-9.38945e-18
-9.15352e-18
-8.61217e-18
-8.74403e-18
-1.09993e-17
-1.05241e-17
-1.01441e-17
-8.85464e-18
-9.5608e-18
-9.10445e-18
-1.09641e-17
-1.0238e-17
-9.67987e-18
-9.55725e-18
-9.81723e-18
-9.96176e-18
-9.53631e-18
-9.73434e-18
-9.75078e-18
-9.92673e-18
-1.05217e-17
-1.01123e-17
-9.55736e-18
-9.34158e-18
-1.03459e-17
-9.85744e-18
-8.27628e-18
-9.39477e-18
-1.0181e-17
-9.81401e-18
-1.03273e-17
-1.02221e-17
-9.43217e-18
-9.65611e-18
-1.00887e-17
-1.02564e-17
-9.9842e-18
-9.80497e-18
-9.68333e-18
-9.12108e-18
-9.57921e-18
-9.59531e-18
-9.63709e-18
-1.05365e-17
-9.97442e-18
-9.16461e-18
-9.7896e-18
-9.72267e-18
-9.44099e-18
-8.12974e-18
-9.33672e-18
-9.60474e-18
-1.01504e-17
-1.00811e-17
-1.02361e-17
-9.76993e-18
-9.54577e-18
-9.91577e-18
-8.51279e-18
-8.96387e-18
-9.41298e-18
-9.91428e-18
-9.99075e-18
-1.13772e-17
-9.61772e-18
-1.02954e-17
-9.76075e-18
-8.70552e-18
-8.85995e-18
-9.40234e-18
-9.78972e-18
-8.71995e-18
-1.05632e-17
-1.00722e-17
-9.17117e-18
-1.0461e-17
-9.93382e-18
-9.30951e-18
-9.43703e-18
-1.03693e-17
-9.20518e-18
-9.79944e-18
-1.02908e-17
-1.00845e-17
-9.59576e-18
-9.00463e-18
-8.67775e-18
-9.57898e-18
-1.05826e-17
-9.39765e-18
-9.77249e-18
-9.45674e-18
-9.32526e-18
-1.0523e-17
-1.03971e-17
-1.00269e-17
-1.0189e-17
-8.74013e-18
-9.03834e-18
-9.84777e-18
-9.98814e-18
-9.78129e-18
-9.6853e-18
-9.86945e-18
-9.73578e-18
-1.05777e-17
-1.02667e-17
-8.90786e-18
-8.39905e-18
-9.75696e-18
-9.78061e-18
-1.01349e-17
-1.00528e-17
-9.42693e-18
-8.74305e-18
-9.56768e-18
-1.01846e-17
-1.11412e-17
-9.84304e-18
-9.33684e-18
-9.53817e-18
-9.59711e-18
-1.00826e-17
-1.02674e-17
-9.32494e-18
-8.51735e-18
-1.02347e-17
-1.03798e-17
-9.65955e-18
-9.42878e-18
-9.17249e-18
-9.63595e-18
-1.08315e-17
-8.90826e-18
-9.28251e-18
-9.15884e-18
-9.58585e-18
-9.63099e-18
-8.95292e-18
-1.05809e-17
-9.93989e-18
-9.59302e-18
-1.01226e-17
-9.7187e-18
-1.05701e-17
-9.05366e-18
-8.13633e-18
-9.53199e-18
-9.89061e-18
-9.34674e-18
-1.08285e-17
-1.03685e-17
-9.62172e-18
-1.08535e-17
-9.10039e-18
-9.84931e-18
-9.44559e-18
-1.08813e-17
-1.01108e-17
-8.91855e-18
-9.16943e-18
-9.5595e-18
-1.01869e-17
-1.00463e-17
-8.99255e-18
-9.70063e-18
-1.01149e-17
-9.87857e-18
-1.00507e-17
-9.88322e-18
-1.00071e-17
-9.83835e-18
-1.03238e-17
-8.84387e-18
-1.02588e-17
-1.02577e-17
-9.38257e-18
-9.60599e-18
-9.31736e-18
-1.00281e-17
-9.64108e-18
-8.90664e-18
-1.04769e-17
-9.89862e-18
-9.63399e-18
-9.70819e-18
-9.63908e-18
-9.40061e-18
-1.04659e-17
-1.0378e-17
-1.00619e-17
-8.89059e-18
-8.41183e-18
-1.0072e-17
-1.02025e-17
-9.8253e-18
-1.01086e-17
-9.43744e-18
-9.93477e-18
-9.80981e-18
-9.87684e-18
-1.02656e-17
-9.53122e-18
-9.10879e-18
-9.30734e-18
-1.05973e-17
-9.45895e-18
-9.68644e-18
-9.83834e-18
-9.61798e-18
-9.09401e-18
-9.53806e-18
-1.05948e-17
-1.01294e-17
-1.07049e-17
-9.88156e-18
-1.01994e-17
-9.68644e-18
-7.90063e-18
-9.14612e-18
-9.38105e-18
-9.94198e-18
-1.07851e-17
-9.79792e-18
-9.24483e-18
-9.82848e-18
-9.25115e-18
-9.25553e-18
-9.14251e-18
-1.06361e-17
-9.46654e-18
-9.13081e-18
-9.79344e-18
-1.06028e-17
-9.41747e-18
-9.99068e-18
-9.80315e-18
-1.02717e-17
-8.97885e-18
-9.88659e-18
-9.69701e-18
-1.81716e-17
-1.87427e-17
-2.04607e-17
-1.88454e-17
-1.72979e-17
-1.75615e-17
-1.92278e-17
-1.79327e-17
-1.93755e-17
-1.89569e-17
-1.80839e-17
-1.72388e-17
-1.78873e-17
-1.89585e-17
-1.82601e-17
-1.91927e-17
-1.85156e-17
-1.7759e-17
-1.77493e-17
-1.88421e-17
-1.93096e-17
-1.86454e-17
-1.82101e-17
-1.59114e-17
-1.78646e-17
-2.00754e-17
-1.8152e-17
-2.02613e-17
-1.85111e-17
-1.7229e-17
-1.86324e-17
-1.83785e-17
-1.74176e-17
-1.84081e-17
-1.90809e-17
-1.95185e-17
-1.77703e-17
-1.77122e-17
-1.58107e-17
-1.74953e-17
-1.80194e-17
-1.55057e-17
-1.87959e-17
-1.99034e-17
-1.97641e-17
-1.83569e-17
-1.9399e-17
-1.73906e-17
-1.7417e-17
-1.74605e-17
-1.85121e-17
-1.81249e-17
-1.69583e-17
-1.90753e-17
-1.7634e-17
-1.92369e-17
-1.81451e-17
-1.56579e-17
-1.75638e-17
-2.04385e-17
-1.86934e-17
-1.95974e-17
-1.69366e-17
-1.6592e-17
-1.7451e-17
-1.73277e-17
-1.88588e-17
-1.95527e-17
-1.8831e-17
-1.88396e-17
-1.86248e-17
-1.73762e-17
-1.76888e-17
-1.72175e-17
-1.70266e-17
-1.78469e-17
-2.13229e-17
-1.80877e-17
-1.89144e-17
-1.84255e-17
-1.899e-17
-1.70525e-17
-1.85799e-17
-1.69368e-17
-1.94899e-17
-1.98885e-17
-1.97474e-17
-1.99682e-17
-1.80911e-17
-1.84766e-17
-1.90088e-17
-1.81137e-17
-1.74382e-17
-1.74355e-17
-1.77405e-17
-1.82822e-17
-1.90795e-17
-1.86117e-17
-1.82303e-17
-1.84604e-17
-1.75181e-17
-1.75141e-17
-1.81035e-17
-1.91442e-17
-1.70888e-17
-1.87465e-17
-1.93038e-17
-1.9755e-17
-1.85265e-17
-1.77707e-17
-1.93198e-17
-1.92009e-17
-1.69395e-17
-1.79532e-17
-1.93401e-17
-1.84269e-17
-1.67989e-17
-1.73212e-17
-1.98495e-17
-1.78981e-17
-1.69366e-17
-1.79808e-17
-1.83336e-17
-1.67664e-17
-1.8771e-17
-1.74084e-17
-1.7177e-17
-1.95073e-17
-1.8982e-17
-1.64088e-17
-1.78023e-17
-1.99459e-17
-2.02515e-17
-1.6925e-17
-1.8189e-17
-1.79014e-17
-1.88664e-17
-1.85819e-17
-1.90705e-17
-1.66259e-17
-1.76564e-17
-2.07142e-17
-2.0207e-17
-1.68939e-17
-1.85262e-17
-1.7628e-17
-1.71315e-17
-1.79932e-17
-1.91528e-17
-1.79035e-17
-1.87611e-17
-1.81144e-17
-1.8285e-17
-1.85407e-17
-1.93098e-17
-1.8635e-17
-1.91125e-17
-1.73094e-17
-1.81456e-17
-1.69057e-17
-1.7939e-17
-1.88813e-17
-1.8823e-17
-1.79725e-17
-1.8766e-17
-1.8915e-17
-1.84102e-17
-1.71557e-17
-1.9835e-17
-1.77836e-17
-1.89752e-17
-1.72461e-17
-1.78021e-17
-1.60166e-17
-1.84805e-17
-1.9248e-17
-1.87186e-17
-1.94917e-17
-1.89369e-17
-1.96439e-17
-1.7852e-17
-1.75106e-17
-1.85637e-17
-1.8959e-17
-1.77619e-17
-1.91434e-17
-1.9259e-17
-1.68239e-17
-1.64565e-17
-1.73053e-17
-1.8991e-17
-1.76275e-17
-1.73706e-17
-1.64616e-17
-1.66612e-17
-1.7648e-17
-1.91483e-17
-1.93217e-17
-1.98119e-17
-1.7982e-17
-1.75231e-17
-1.7635e-17
-1.84587e-17
-2.02045e-17
-2.03345e-17
-1.84898e-17
-1.86703e-17
-1.70883e-17
-1.7711e-17
-1.81039e-17
-1.75614e-17
-1.74273e-17
-1.93314e-17
-1.94444e-17
-1.86054e-17
-1.88301e-17
-1.72163e-17
-1.80864e-17
-1.72793e-17
-1.81967e-17
-1.9011e-17
-1.73721e-17
-1.71211e-17
-1.95735e-17
-1.61584e-17
-2.00398e-17
-1.81277e-17
-1.77669e-17
-1.61159e-17
-1.8726e-17
-1.83433e-17
-1.92697e-17
-1.81512e-17
-1.96659e-17
-1.83239e-17
-1.74994e-17
-1.84113e-17
-1.62337e-17
-1.80637e-17
-1.80369e-17
-1.95798e-17
-1.74936e-17
-1.9259e-17
-1.78533e-17
-2.027e-17
-1.77412e-17
-1.77856e-17
-1.86998e-17
-1.92363e-17
-1.77463e-17
-1.87713e-17
-1.70996e-17
-1.57967e-17
-1.83894e-17
-1.99285e-17
-1.72677e-17
-3.50765e-17
-3.26432e-17
-3.57256e-17
-3.55616e-17
-2.99073e-17
-3.28175e-17
-3.4926e-17
-3.31184e-17
-3.68708e-17
-3.52622e-17
-3.03381e-17
-2.98084e-17
-3.3206e-17
-3.34699e-17
-3.50646e-17
-3.49456e-17
-3.30368e-17
-3.19254e-17
-3.31096e-17
-3.67761e-17
-3.45506e-17
-3.3201e-17
-3.29416e-17
-3.23033e-17
-3.62443e-17
-3.49155e-17
-3.12076e-17
-3.43876e-17
-3.959e-17
-3.56423e-17
-3.37638e-17
-3.46963e-17
-3.00376e-17
-3.27083e-17
-3.50738e-17
-3.24591e-17
-3.35123e-17
-3.3791e-17
-3.45095e-17
-3.56481e-17
-3.30766e-17
-3.20964e-17
-3.73206e-17
-3.48853e-17
-3.20053e-17
-3.30483e-17
-3.03392e-17
-3.29261e-17
-3.68641e-17
-3.47441e-17
-3.71236e-17
-3.11329e-17
-3.26152e-17
-3.49721e-17
-3.05703e-17
-3.19462e-17
-3.71154e-17
-3.38081e-17
-3.1587e-17
-3.63368e-17
-3.69455e-17
-3.70672e-17
-3.83567e-17
-3.25459e-17
-3.11303e-17
-3.31182e-17
-3.46916e-17
-3.53799e-17
-3.19307e-17
-3.2327e-17
-2.98416e-17
-3.26855e-17
-3.47514e-17
-3.64386e-17
-3.68901e-17
-3.39469e-17
-3.53757e-17
-3.57913e-17
-3.68357e-17
-3.36404e-17
-3.24475e-17
-3.16209e-17
-3.42121e-17
-3.39942e-17
-3.67709e-17
-3.28487e-17
-3.2114e-17
-3.37994e-17
-3.28436e-17
-3.47853e-17
-3.56799e-17
-3.51068e-17
-3.13941e-17
-3.50708e-17
-3.48554e-17
-3.28276e-17
-3.37775e-17
-3.24973e-17
-3.62953e-17
-3.44433e-17
-2.82483e-17
-3.28003e-17
-3.28913e-17
-3.33588e-17
-3.25866e-17
-3.43696e-17
-4.02133e-17
-3.64804e-17
-3.22375e-17
-2.98205e-17
-3.23234e-17
-3.39143e-17
-3.34651e-17
-3.26485e-17
-3.40734e-17
-3.78996e-17
-3.38424e-17
-3.51477e-17
-3.33793e-17
-3.23076e-17
-3.38113e-17
-3.45077e-17
-3.39976e-17
-3.13714e-17
-3.39126e-17
-3.20731e-17
-3.28822e-17
-3.30976e-17
-3.62311e-17
-3.51666e-17
-3.19956e-17
-3.27223e-17
-3.06472e-17
-3.44063e-17
-3.14928e-17
-3.20323e-17
-3.21981e-17
-3.29587e-17
-3.42376e-17
-3.3557e-17
-3.27594e-17
-3.20017e-17
-3.05764e-17
-3.62486e-17
-3.58971e-17
-3.43002e-17
-3.21767e-17
-3.3632e-17
-3.54082e-17
-3.32859e-17
-3.1489e-17
-3.49586e-17
-3.89535e-17
-3.37465e-17
-3.25463e-17
-3.6474e-17
-3.62446e-17
-3.16616e-17
-3.37448e-17
-3.30534e-17
-3.26793e-17
-3.44249e-17
-3.51679e-17
-3.41451e-17
-3.30591e-17
-3.39194e-17
-3.28142e-17
-3.46485e-17
-3.36181e-17
-3.40231e-17
-3.3356e-17
-3.37889e-17
-3.19884e-17
-3.51125e-17
-3.68858e-17
-3.64575e-17
-3.1223e-17
-3.41358e-17
-3.09485e-17
-3.33201e-17
-3.60727e-17
-3.14046e-17
-3.32088e-17
-3.13082e-17
-3.32622e-17
-3.39149e-17
-3.45345e-17
-3.19174e-17
-3.63576e-17
-3.45329e-17
-3.42036e-17
-3.15315e-17
-3.32527e-17
-3.62882e-17
-3.32294e-17
-3.60038e-17
-3.31185e-17
-3.02027e-17
-3.13729e-17
-3.39869e-17
-3.44303e-17
-3.3513e-17
-3.46545e-17
-3.54951e-17
-3.43192e-17
-3.2479e-17
-3.30202e-17
-3.50838e-17
-3.36702e-17
-3.15574e-17
-3.40397e-17
-3.33018e-17
-3.54407e-17
-3.73676e-17
-3.52363e-17
-3.40761e-17
-3.45634e-17
-3.80997e-17
-3.51807e-17
-3.18286e-17
-3.52843e-17
-3.47848e-17
-3.35337e-17
-3.5336e-17
-3.35095e-17
-3.24319e-17
-3.25344e-17
-3.52989e-17
-3.19948e-17
-3.30408e-17
-3.43312e-17
-3.64239e-17
-3.48609e-17
-3.49984e-17
-3.47607e-17
-2.88501e-17
-3.33689e-17
-3.32075e-17
-3.59382e-17
-3.55085e-17
-3.52066e-17
-3.29282e-17
-3.35931e-17
-3.7518e-17
-3.39454e-17
-3.35767e-17
-3.10978e-17
-3.17944e-17
-3.27273e-17
-3.33276e-17
-3.48084e-17
-3.64683e-17
-3.42599e-17
-3.747e-17
-3.49306e-17
-3.43693e-17
-6.10517e-17
-5.9429e-17
-6.13308e-17
-6.35337e-17
-6.80765e-17
-6.30086e-17
-6.16541e-17
-6.74025e-17
-6.29872e-17
-6.02622e-17
-6.08087e-17
-6.37364e-17
-6.5384e-17
-6.46359e-17
-6.69704e-17
-6.89031e-17
-5.77974e-17
-5.93475e-17
-5.60591e-17
-6.49102e-17
-6.60099e-17
-6.64722e-17
-6.10723e-17
-5.7628e-17
-7.006e-17
-7.12741e-17
-6.02222e-17
-6.60029e-17
-6.40802e-17
-5.84711e-17
-6.27607e-17
-6.01932e-17
-5.61866e-17
-6.37905e-17
-6.24515e-17
-6.32756e-17
-6.66972e-17
-6.8381e-17
-6.25892e-17
-6.32896e-17
-6.30468e-17
-6.18769e-17
-6.82335e-17
-6.87991e-17
-5.84728e-17
-5.71245e-17
-5.7826e-17
-6.31277e-17
-6.736e-17
-6.75976e-17
-6.75037e-17
-6.34372e-17
-6.21968e-17
-6.44725e-17
-5.78844e-17
-6.18067e-17
-6.17478e-17
-6.46292e-17
-6.61799e-17
-6.53513e-17
-6.20901e-17
-6.16931e-17
-6.42603e-17
-6.65197e-17
-6.54946e-17
-6.82731e-17
-6.29984e-17
-6.55615e-17
-6.14544e-17
-6.46774e-17
-5.75885e-17
-5.90317e-17
-6.25625e-17
-6.29281e-17
-6.4397e-17
-6.36216e-17
-6.88361e-17
-6.44008e-17
-5.73423e-17
-5.49211e-17
-6.11999e-17
-6.15532e-17
-5.70612e-17
-7.11952e-17
-6.95703e-17
-6.52504e-17
-6.45826e-17
-6.2389e-17
-5.97417e-17
-5.60067e-17
-6.14201e-17
-6.23078e-17
-6.67838e-17
-6.53027e-17
-6.04054e-17
-6.8223e-17
-6.79402e-17
-6.43183e-17
-6.32391e-17
-6.11443e-17
-5.93234e-17
-6.07055e-17
-6.36676e-17
-6.88427e-17
-6.71557e-17
-6.43123e-17
-6.3409e-17
-7.08471e-17
-6.10671e-17
-5.95069e-17
-6.3553e-17
-7.05894e-17
-5.82016e-17
-5.55105e-17
-6.11879e-17
-6.31452e-17
-6.23805e-17
-7.00673e-17
-6.85554e-17
-6.09124e-17
-6.35058e-17
-6.23449e-17
-5.98776e-17
-6.63459e-17
-6.92386e-17
-7.01603e-17
-6.25955e-17
-6.547e-17
-6.49424e-17
-6.60362e-17
-6.32331e-17
-6.3718e-17
-5.68355e-17
-6.85002e-17
-5.95536e-17
-5.9765e-17
-5.92247e-17
-6.49918e-17
-6.33833e-17
-6.74138e-17
-6.36407e-17
-5.89238e-17
-6.85095e-17
-7.28416e-17
-6.23388e-17
-6.75834e-17
-6.73019e-17
-5.83042e-17
-6.42528e-17
-5.58684e-17
-5.98996e-17
-6.81272e-17
-7.09323e-17
-5.87198e-17
-6.01364e-17
-6.60942e-17
-6.31108e-17
-6.06137e-17
-5.84209e-17
-6.28989e-17
-6.95485e-17
-6.27108e-17
-6.53637e-17
-6.27016e-17
-5.96858e-17
-5.96281e-17
-6.75886e-17
-6.75573e-17
-6.21407e-17
-6.15673e-17
-6.2517e-17
-6.95555e-17
-6.6169e-17
-6.60093e-17
-6.71713e-17
-6.49425e-17
-5.69712e-17
-6.54294e-17
-6.56569e-17
-6.38923e-17
-6.17174e-17
-6.06513e-17
-6.02045e-17
-6.32973e-17
-6.24405e-17
-5.91417e-17
-7.04604e-17
-6.1686e-17
-6.19663e-17
-6.46113e-17
-6.58715e-17
-6.05001e-17
-6.57894e-17
-6.53135e-17
-6.33126e-17
-7.18068e-17
-6.73155e-17
-6.08016e-17
-5.88793e-17
-6.52064e-17
-5.83355e-17
-5.97396e-17
-6.28982e-17
-6.38355e-17
-6.69614e-17
-6.2301e-17
-6.58552e-17
-6.66914e-17
-5.03387e-17
-6.26388e-17
-6.352e-17
-6.48874e-17
-5.97681e-17
-6.02823e-17
-5.82107e-17
-6.49324e-17
-7.29736e-17
-6.23831e-17
-6.12322e-17
-5.96344e-17
-6.20155e-17
-6.29648e-17
-6.1662e-17
-6.13786e-17
-6.46037e-17
-6.65038e-17
-6.28752e-17
-6.54357e-17
-5.90196e-17
-5.65517e-17
-6.08764e-17
-6.93243e-17
-6.13036e-17
-6.70104e-17
-6.54456e-17
-5.85185e-17
-6.44316e-17
-6.16466e-17
-6.51601e-17
-6.35648e-17
-6.02303e-17
-5.96113e-17
-6.48848e-17
-6.34378e-17
-6.12289e-17
-6.16363e-17
-6.3339e-17
-6.1274e-17
-5.9301e-17
-5.92788e-17
-5.9166e-17
-6.55779e-17
-5.7618e-17
-6.60734e-17
-6.85021e-17
-6.2928e-17
-1.1534e-16
-1.2622e-16
-1.23326e-16
-1.1839e-16
-1.18522e-16
-1.17231e-16
-1.20053e-16
-1.26908e-16
-1.04173e-16
-1.13322e-16
-1.19679e-16
-1.19305e-16
-1.19575e-16
-1.15001e-16
-1.26191e-16
-1.22231e-16
-1.21405e-16
-1.21393e-16
-9.68074e-17
-1.13501e-16
-1.24851e-16
-1.29937e-16
-1.27665e-16
-1.16723e-16
-1.18743e-16
-1.29532e-16
-1.15871e-16
-1.15463e-16
-1.1098e-16
-1.22691e-16
-1.08029e-16
-1.14729e-16
-1.16694e-16
-1.15105e-16
-1.13679e-16
-1.30537e-16
-1.18332e-16
-1.22112e-16
-1.16982e-16
-1.14552e-16
-1.20967e-16
-1.09928e-16
-1.20032e-16
-1.34323e-16
-1.3757e-16
-1.11093e-16
-1.23607e-16
-1.31974e-16
-1.04559e-16
-1.16517e-16
-1.19574e-16
-1.17457e-16
-1.23664e-16
-1.14904e-16
-1.09567e-16
-1.1915e-16
-1.16151e-16
-1.21014e-16
-1.25549e-16
-1.17363e-16
-1.09789e-16
-1.06772e-16
-1.0294e-16
-1.16852e-16
-1.1447e-16
-1.18374e-16
-1.11917e-16
-1.12018e-16
-1.14645e-16
-1.20806e-16
-1.26435e-16
-1.1903e-16
-1.10894e-16
-1.19245e-16
-1.15479e-16
-1.17955e-16
-1.23834e-16
-1.15691e-16
-1.21769e-16
-1.16617e-16
-1.20901e-16
-1.1639e-16
-1.21413e-16
-1.11503e-16
-1.17041e-16
-1.25353e-16
-1.24921e-16
-1.116e-16
-1.10648e-16
-1.08283e-16
-1.12212e-16
-1.10241e-16
-1.22226e-16
-1.22729e-16
-1.20443e-16
-1.1736e-16
-1.19206e-16
-1.18767e-16
-1.15282e-16
-1.09812e-16
-1.20499e-16
-1.14495e-16
-1.11309e-16
-1.20672e-16
-1.07268e-16
-1.1859e-16
-1.20807e-16
-1.18632e-16
-1.27617e-16
-1.29313e-16
-1.09329e-16
-1.13008e-16
-1.12072e-16
-1.06055e-16
-1.28209e-16
-1.2781e-16
-1.14758e-16
-1.19187e-16
-1.20166e-16
-1.13301e-16
-1.22163e-16
-1.15916e-16
-1.22034e-16
-1.31736e-16
-1.20234e-16
-1.27179e-16
-1.13299e-16
-1.27123e-16
-1.28513e-16
-1.25063e-16
-1.09125e-16
-1.11244e-16
-1.12138e-16
-1.19825e-16
-1.26441e-16
-1.13483e-16
-1.16108e-16
-1.22741e-16
-1.1597e-16
-1.2275e-16
-1.19293e-16
-1.17085e-16
-1.22351e-16
-1.24136e-16
-1.19271e-16
-1.23196e-16
-1.18693e-16
-1.19665e-16
-1.23941e-16
-1.192e-16
-1.0771e-16
-1.20676e-16
-1.31298e-16
-1.08032e-16
-1.15138e-16
-1.18181e-16
-1.06408e-16
-1.19972e-16
-1.26876e-16
-1.25424e-16
-1.18001e-16
-1.23963e-16
-1.15132e-16
-1.16989e-16
-1.14916e-16
-1.17618e-16
-1.1537e-16
-1.1603e-16
-1.14709e-16
-1.08018e-16
-1.07277e-16
-1.15493e-16
-1.32496e-16
-1.21982e-16
-1.1111e-16
-1.11378e-16
-1.09338e-16
-1.28217e-16
-1.17741e-16
-1.27283e-16
-1.21377e-16
-1.22293e-16
-1.15268e-16
-1.23847e-16
-1.17209e-16
-1.16857e-16
-1.15378e-16
-1.2252e-16
-1.13601e-16
-1.26213e-16
-1.25126e-16
-1.15242e-16
-1.13566e-16
-1.23848e-16
-1.15092e-16
-1.16911e-16
-1.1587e-16
-1.13185e-16
-1.12061e-16
-1.11475e-16
-1.05426e-16
-1.1813e-16
-1.16459e-16
-1.22062e-16
-1.16445e-16
-1.13885e-16
-1.11635e-16
-1.1548e-16
-1.15902e-16
-1.18928e-16
-1.29284e-16
-1.23026e-16
-1.09838e-16
-1.09764e-16
-1.18094e-16
-1.14183e-16
-1.3134e-16
-1.13561e-16
-1.24362e-16
-1.26702e-16
-1.24476e-16
-1.10192e-16
-1.15211e-16
-1.15611e-16
-1.25586e-16
-1.12072e-16
-1.23148e-16
-1.22932e-16
-1.13182e-16
-1.16579e-16
-1.16328e-16
-1.38318e-16
-1.23352e-16
-1.16068e-16
-1.18665e-16
-1.21111e-16
-1.23756e-16
-1.13425e-16
-1.19643e-16
-1.07781e-16
-1.18858e-16
-1.23956e-16
-1.18159e-16
-1.1798e-16
-1.07677e-16
-1.23446e-16
-1.152e-16
-1.06749e-16
-1.01308e-16
-1.22278e-16
-1.17033e-16
-1.30693e-16
-1.23928e-16
-1.21465e-16
-1.2477e-16
-1.11725e-16
-2.2744e-16
-2.34635e-16
-2.26073e-16
-2.02431e-16
-2.11574e-16
-2.24313e-16
-2.23757e-16
-2.17533e-16
-2.10671e-16
-2.22317e-16
-2.45736e-16
-2.20542e-16
-2.18822e-16
-2.201e-16
-2.32315e-16
-2.40153e-16
-2.39775e-16
-2.3307e-16
-1.90705e-16
-2.11435e-16
-2.25959e-16
-2.2731e-16
-2.21939e-16
-1.96042e-16
-1.96561e-16
-2.14291e-16
-2.10323e-16
-2.20054e-16
-2.19033e-16
-2.27187e-16
-2.42516e-16
-2.13615e-16
-2.24924e-16
-2.24482e-16
-2.17541e-16
-2.05957e-16
-2.31053e-16
-2.08345e-16
-2.28588e-16
-2.39472e-16
-2.42902e-16
-2.09693e-16
-2.14373e-16
-2.1741e-16
-2.17482e-16
-2.16062e-16
-2.378e-16
-2.29772e-16
-1.97886e-16
-2.13915e-16
-2.19611e-16
-2.3766e-16
-2.37427e-16
-2.11601e-16
-2.02804e-16
-2.51027e-16
-2.55762e-16
-2.44179e-16
-2.01895e-16
-2.32183e-16
-1.97656e-16
-1.93775e-16
-2.24024e-16
-1.98912e-16
-2.17632e-16
-1.92215e-16
-2.33169e-16
-2.30042e-16
-2.19937e-16
-2.2438e-16
-2.32456e-16
-2.43879e-16
-2.16339e-16
-2.15964e-16
-2.39746e-16
-2.15067e-16
-2.13644e-16
-2.39588e-16
-2.34559e-16
-2.2338e-16
-2.36781e-16
-2.12875e-16
-2.23196e-16
-2.15835e-16
-2.03763e-16
-2.12511e-16
-2.41139e-16
-2.32426e-16
-2.12802e-16
-2.16545e-16
-2.20412e-16
-2.09352e-16
-2.27157e-16
-2.28859e-16
-2.12797e-16
-2.43138e-16
-2.56067e-16
-2.2742e-16
-2.2914e-16
-2.33194e-16
-2.08972e-16
-1.98239e-16
-2.1763e-16
-1.99729e-16
-2.11359e-16
-2.15758e-16
-2.08629e-16
-2.19627e-16
-2.36916e-16
-2.25055e-16
-2.26221e-16
-2.22884e-16
-2.05594e-16
-2.11522e-16
-2.18286e-16
-2.30692e-16
-2.04846e-16
-1.99832e-16
-2.27509e-16
-2.16627e-16
-2.08082e-16
-2.06117e-16
-2.11829e-16
-2.22802e-16
-2.22571e-16
-2.33132e-16
-2.18683e-16
-2.19189e-16
-2.24252e-16
-2.30849e-16
-2.28527e-16
-2.34753e-16
-2.14722e-16
-2.24121e-16
-2.21975e-16
-2.22439e-16
-2.08291e-16
-2.39934e-16
-2.34943e-16
-2.35566e-16
-2.06982e-16
-2.12013e-16
-2.27795e-16
-2.06083e-16
-2.20854e-16
-2.20521e-16
-2.09652e-16
-2.20961e-16
-2.22884e-16
-2.26018e-16
-1.90494e-16
-2.09336e-16
-2.15256e-16
-2.24326e-16
-2.24531e-16
-2.1444e-16
-2.2023e-16
-2.046e-16
-2.14458e-16
-2.27834e-16
-2.22773e-16
-2.21172e-16
-2.27001e-16
-2.45794e-16
-2.29077e-16
-2.03328e-16
-2.15812e-16
-2.36256e-16
-2.2947e-16
-2.34323e-16
-2.22808e-16
-2.09244e-16
-2.29322e-16
-2.31483e-16
-2.23616e-16
-2.12153e-16
-2.25977e-16
-2.06029e-16
-2.35476e-16
-2.32311e-16
-2.17865e-16
-2.23052e-16
-2.30474e-16
-2.3513e-16
-2.17492e-16
-2.05433e-16
-2.13193e-16
-2.369e-16
-2.19994e-16
-2.41519e-16
-2.34148e-16
-2.03447e-16
-2.00498e-16
-2.17601e-16
-2.02548e-16
-2.03454e-16
-1.98509e-16
-2.26673e-16
-2.22753e-16
-2.26724e-16
-1.95335e-16
-2.12917e-16
-2.14168e-16
-2.35637e-16
-2.18889e-16
-2.26233e-16
-2.35972e-16
-2.28728e-16
-2.33659e-16
-2.03556e-16
-2.17707e-16
-2.23925e-16
-2.35768e-16
-2.28707e-16
-2.14936e-16
-2.2175e-16
-2.13826e-16
-2.28347e-16
-2.46507e-16
-2.46891e-16
-2.42561e-16
-2.22138e-16
-2.32339e-16
-2.12958e-16
-2.04949e-16
-2.00521e-16
-2.1461e-16
-2.19705e-16
-2.32544e-16
-2.20677e-16
-2.07811e-16
-2.41773e-16
-2.44825e-16
-2.24193e-16
-2.18414e-16
-2.18288e-16
-1.85223e-16
-2.01287e-16
-2.33097e-16
-2.34973e-16
-2.26656e-16
-2.11793e-16
-1.98556e-16
-2.07439e-16
-2.20956e-16
-2.27423e-16
-2.24183e-16
-2.28608e-16
-2.28726e-16
-2.08983e-16
-2.25441e-16
-2.25153e-16
-2.36943e-16
-2.32085e-16
-2.34709e-16
-2.09751e-16
-4.30025e-16
-4.10349e-16
-4.07001e-16
-3.87763e-16
-4.55047e-16
-4.49705e-16
-3.7565e-16