# vtk DataFile Version 1.0
Electron Density - Current Sheet 
ASCII
DATASET STRUCTURED_POINTS
DIMENSIONS 256 128 1
ORIGIN 0 0 0
SPACING 0.15625 0.15625 1
POINT_DATA 32768
SCALARS rhoe float
LOOKUP_TABLE default
-1.91867e-18
-1.85627e-18
-1.91676e-18
-1.6528e-18
-1.93646e-18
-1.85116e-18
-1.64291e-18
-1.7993e-18
-1.72771e-18
-2.15277e-18
-1.99619e-18
-1.75174e-18
-1.72405e-18
-1.66844e-18
-1.66016e-18
-2.00979e-18
-2.05828e-18
-1.80453e-18
-1.96284e-18
-1.95953e-18
-1.9284e-18
-1.68558e-18
-1.79517e-18
-1.97991e-18
-1.68395e-18
-1.81389e-18
-1.7236e-18
-1.75451e-18
-1.73091e-18
-1.85195e-18
-1.71933e-18
-1.7426e-18
-2.16541e-18
-2.01118e-18
-2.00589e-18
-1.70978e-18
-1.89356e-18
-1.99846e-18
-1.88465e-18
-1.69973e-18
-1.96529e-18
-1.90326e-18
-2.00117e-18
-1.80828e-18
-1.62662e-18
-1.76466e-18
-1.67498e-18
-1.86096e-18
-1.86383e-18
-1.93505e-18
-1.78933e-18
-1.92458e-18
-1.90964e-18
-1.9613e-18
-1.86801e-18
-1.93835e-18
-1.95656e-18
-1.75754e-18
-1.7635e-18
-1.89241e-18
-1.89069e-18
-1.95614e-18
-1.90162e-18
-2.06948e-18
-1.68813e-18
-1.80179e-18
-1.79945e-18
-2.00372e-18
-1.95717e-18
-2.08315e-18
-1.86914e-18
-1.89825e-18
-1.89578e-18
-1.69342e-18
-1.70281e-18
-1.65393e-18
-1.61975e-18
-1.80844e-18
-1.67766e-18
-2.14202e-18
-1.94025e-18
-2.01822e-18
-1.8389e-18
-1.8465e-18
-1.72615e-18
-1.82248e-18
-1.95229e-18
-1.75912e-18
-1.89785e-18
-1.75299e-18
-1.91287e-18
-1.97241e-18
-1.87678e-18
-1.89664e-18
-1.67368e-18
-1.74661e-18
-1.98631e-18
-1.6751e-18
-1.6933e-18
-1.63898e-18
-1.88067e-18
-1.57524e-18
-1.87582e-18
-1.89779e-18
-1.98236e-18
-2.00497e-18
-2.15011e-18
-1.71665e-18
-1.83338e-18
-1.79552e-18
-1.67907e-18
-1.9374e-18
-1.99399e-18
-1.73132e-18
-1.88207e-18
-1.54936e-18
-1.86808e-18
-1.8966e-18
-1.72024e-18
-1.75968e-18
-1.90288e-18
-1.89263e-18
-2.04388e-18
-2.03448e-18
-2.07865e-18
-1.93213e-18
-1.50908e-18
-1.52228e-18
-1.9952e-18
-1.88257e-18
-1.44974e-18
-1.88555e-18
-1.85293e-18
-1.7064e-18
-1.94996e-18
-1.89444e-18
-1.60517e-18
-1.78029e-18
-2.03182e-18
-1.8343e-18
-1.79098e-18
-1.94257e-18
-1.97619e-18
-1.64417e-18
-1.61222e-18
-1.59363e-18
-1.84268e-18
-1.91452e-18
-1.79605e-18
-1.84341e-18
-2.05167e-18
-1.84027e-18
-1.60728e-18
-2.11374e-18
-1.95607e-18
-1.84045e-18
-2.05453e-18
-1.97787e-18
-1.99099e-18
-1.79973e-18
-1.83669e-18
-1.96173e-18
-1.81358e-18
-1.906e-18
-1.74683e-18
-1.91117e-18
-1.94934e-18
-1.96705e-18
-2.02929e-18
-1.71667e-18
-1.69885e-18
-1.95259e-18
-2.00414e-18
-1.68399e-18
-1.7514e-18
-1.71452e-18
-1.96063e-18
-1.81316e-18
-1.45977e-18
-2.05686e-18
-2.17754e-18
-2.06706e-18
-2.17992e-18
-1.78673e-18
-1.70726e-18
-1.658e-18
-1.90807e-18
-1.72656e-18
-1.92044e-18
-1.65191e-18
-1.81975e-18
-1.79524e-18
-1.58793e-18
-1.82777e-18
-1.83435e-18
-1.51663e-18
-1.66058e-18
-2.1035e-18
-1.8877e-18
-2.22148e-18
-1.81122e-18
-1.89952e-18
-1.75245e-18
-1.89474e-18
-1.98178e-18
-1.88311e-18
-2.01176e-18
-1.88576e-18
-2.03088e-18
-1.61117e-18
-1.44465e-18
-1.62133e-18
-1.93218e-18
-1.83957e-18
-1.86703e-18
-1.93486e-18
-2.21525e-18
-2.30682e-18
-2.00522e-18
-1.71339e-18
-1.84104e-18
-1.74615e-18
-1.9079e-18
-2.14258e-18
-1.67822e-18
-1.66753e-18
-1.74853e-18
-1.71589e-18
-1.6792e-18
-1.79079e-18
-1.73561e-18
-1.52884e-18
-1.84962e-18
-1.89332e-18
-2.08158e-18
-1.74616e-18
-1.70587e-18
-2.05387e-18
-2.02211e-18
-1.80765e-18
-1.8269e-18
-1.65063e-18
-1.69047e-18
-1.9655e-18
-1.97572e-18
-1.88107e-18
-1.65385e-18
-1.98528e-18
-2.11479e-18
-1.94494e-18
-1.76954e-18
-1.76722e-18
-1.87245e-18
-2.09607e-18
-1.93526e-18
-1.93602e-18
-3.08702e-18
-2.78104e-18
-2.67352e-18
-2.51254e-18
-2.6436e-18
-2.6891e-18
-2.87983e-18
-2.68239e-18
-2.82741e-18
-3.01031e-18
-2.72446e-18
-2.89284e-18
-2.9851e-18
-2.81973e-18
-2.90017e-18
-3.24499e-18
-2.64077e-18
-2.71104e-18
-2.82447e-18
-2.97019e-18
-2.71789e-18
-2.87808e-18
-2.95514e-18
-2.70436e-18
-2.50929e-18
-2.63026e-18
-2.56903e-18
-2.77e-18
-2.91814e-18
-3.13183e-18
-2.87461e-18
-2.94291e-18
-2.88797e-18
-2.77648e-18
-2.59942e-18
-2.66724e-18
-2.99177e-18
-3.02094e-18
-2.93852e-18
-2.72887e-18
-2.7185e-18
-2.70455e-18
-2.9623e-18
-2.77971e-18
-2.65754e-18
-2.92114e-18
-2.71437e-18
-3.04102e-18
-2.90425e-18
-2.59302e-18
-2.93701e-18
-2.90057e-18
-2.79996e-18
-3.01803e-18
-2.63273e-18
-2.72615e-18
-2.96865e-18
-2.81175e-18
-2.6904e-18
-2.76651e-18
-2.49526e-18
-3.03474e-18
-2.94412e-18
-2.95411e-18
-2.87943e-18
-2.53836e-18
-2.85463e-18
-2.74628e-18
-3.05968e-18
-2.86597e-18
-2.67041e-18
-2.6592e-18
-2.71359e-18
-2.8131e-18
-2.92716e-18
-2.75068e-18
-2.51339e-18
-3.14257e-18
-2.85344e-18
-2.9613e-18
-2.78525e-18
-2.56765e-18
-2.93963e-18
-2.72417e-18
-2.98434e-18
-2.94488e-18
-3.10139e-18
-2.83634e-18
-2.79939e-18
-2.7414e-18
-2.80238e-18
-2.7983e-18
-2.94264e-18
-2.85273e-18
-2.97078e-18
-2.61371e-18
-2.80251e-18
-2.62095e-18
-2.67108e-18
-2.52879e-18
-2.86516e-18
-2.87405e-18
-2.93914e-18
-2.91751e-18
-2.60753e-18
-2.69853e-18
-2.82381e-18
-2.83551e-18
-3.21096e-18
-2.81016e-18
-2.82047e-18
-2.70868e-18
-2.68061e-18
-2.6323e-18
-2.64589e-18
-2.9211e-18
-3.20972e-18
-3.02876e-18
-2.57612e-18
-2.86055e-18
-3.10642e-18
-3.00599e-18
-2.94146e-18
-3.1877e-18
-3.17363e-18
-2.72375e-18
-2.80143e-18
-2.67475e-18
-2.61615e-18
-2.47842e-18
-2.79818e-18
-2.68613e-18
-3.04418e-18
-2.89117e-18
-3.24388e-18
-2.91593e-18
-2.66064e-18
-2.94434e-18
-2.64795e-18
-2.95384e-18
-2.44945e-18
-2.57064e-18
-2.59824e-18
-2.67527e-18
-2.84736e-18
-3.12246e-18
-2.86651e-18
-2.90112e-18
-2.7812e-18
-2.87264e-18
-2.85606e-18
-2.85122e-18
-2.59296e-18
-2.60599e-18
-2.9403e-18
-2.98062e-18
-2.98977e-18
-3.00791e-18
-2.87196e-18
-2.72513e-18
-2.73746e-18
-2.76017e-18
-2.9307e-18
-3.02727e-18
-2.67331e-18
-2.61153e-18
-2.77978e-18
-2.54373e-18
-2.68834e-18
-3.07483e-18
-2.71321e-18
-2.61324e-18
-2.97021e-18
-2.91099e-18
-3.00737e-18
-2.69439e-18
-2.89142e-18
-2.69651e-18
-2.8842e-18
-2.80065e-18
-2.82061e-18
-2.9081e-18
-3.04227e-18
-2.80494e-18
-2.5666e-18
-2.70661e-18
-2.88118e-18
-2.76927e-18
-2.58036e-18
-2.57256e-18
-2.78277e-18
-3.032e-18
-2.75869e-18
-2.75735e-18
-2.89887e-18
-2.96223e-18
-3.1002e-18
-2.93853e-18
-2.89351e-18
-2.613e-18
-2.56178e-18
-2.85645e-18
-2.98432e-18
-3.11604e-18
-2.94729e-18
-2.7613e-18
-2.9227e-18
-2.89097e-18
-3.12573e-18
-2.78242e-18
-2.67509e-18
-2.72155e-18
-2.83414e-18
-2.95621e-18
-2.76031e-18
-2.90045e-18
-2.80297e-18
-2.97608e-18
-2.87231e-18
-2.74078e-18
-2.6023e-18
-2.49719e-18
-2.7746e-18
-3.0499e-18
-2.84131e-18
-2.73485e-18
-2.92241e-18
-2.73432e-18
-2.69916e-18
-3.03572e-18
-2.78781e-18
-2.64823e-18
-2.92061e-18
-2.71994e-18
-2.78819e-18
-2.86999e-18
-2.83542e-18
-2.69335e-18
-2.71479e-18
-3.02833e-18
-3.1244e-18
-2.93151e-18
-2.64059e-18
-2.83603e-18
-2.67627e-18
-2.63978e-18
-2.56338e-18
-2.90863e-18
-3.00832e-18
-2.8293e-18
-3.02049e-18
-2.72865e-18
-2.75166e-18
-2.97056e-18
-2.99874e-18
-2.93002e-18
-5.10151e-18
-5.04909e-18
-5.30114e-18
-5.27462e-18
-4.62785e-18
-5.05457e-18
-5.40502e-18
-5.57299e-18
-5.20739e-18
-5.26999e-18
-5.06838e-18
-5.23077e-18
-5.22741e-18
-5.06488e-18
-5.06428e-18
-5.54855e-18
-5.15199e-18
-4.86423e-18
-5.28073e-18
-5.4144e-18
-5.17935e-18
-5.17543e-18
-5.48218e-18
-5.16506e-18
-5.24987e-18
-5.18658e-18
-5.31809e-18
-5.448e-18
-4.52163e-18
-5.35026e-18
-5.45965e-18
-5.11223e-18
-5.49561e-18
-5.5298e-18
-4.85857e-18
-4.9953e-18
-5.10982e-18
-4.99044e-18
-5.136e-18
-5.59078e-18
-4.99184e-18
-5.31622e-18
-4.92264e-18
-4.72458e-18
-5.16835e-18
-5.29181e-18
-5.29136e-18
-5.44793e-18
-4.98666e-18
-5.17298e-18
-4.71692e-18
-5.56764e-18
-5.44754e-18
-5.58151e-18
-4.84848e-18
-4.91717e-18
-4.81114e-18
-5.05619e-18
-5.64188e-18
-5.56421e-18
-5.09148e-18
-5.48318e-18
-5.07475e-18
-5.25223e-18
-4.95082e-18
-4.93718e-18
-5.47229e-18
-4.80233e-18
-5.49941e-18
-5.20637e-18
-4.7051e-18
-4.95092e-18
-5.34558e-18
-4.81591e-18
-5.22671e-18
-5.15701e-18
-5.18539e-18
-5.84808e-18
-5.50382e-18
-5.58459e-18
-5.35959e-18
-5.16541e-18
-4.94155e-18
-5.38749e-18
-5.09459e-18
-4.79783e-18
-5.6413e-18
-4.85407e-18
-5.51592e-18
-5.19481e-18
-5.56677e-18
-4.90628e-18
-5.1376e-18
-5.19573e-18
-5.30524e-18
-5.1399e-18
-5.2792e-18
-4.73778e-18
-4.90981e-18
-5.4717e-18
-4.86286e-18
-5.25637e-18
-5.50209e-18
-4.80879e-18
-4.84669e-18
-5.33264e-18
-5.49472e-18
-5.22031e-18
-4.86198e-18
-5.08681e-18
-5.51787e-18
-5.86007e-18
-5.16781e-18
-5.02607e-18
-4.92192e-18
-4.96203e-18
-5.46622e-18
-5.37068e-18
-5.1185e-18
-5.44498e-18
-5.49274e-18
-5.62853e-18
-5.19387e-18
-5.08621e-18
-5.53054e-18
-5.24409e-18
-4.81613e-18
-4.96796e-18
-5.24683e-18
-5.56701e-18
-5.36036e-18
-4.82083e-18
-5.19114e-18
-5.1204e-18
-5.29707e-18
-5.06349e-18
-4.81718e-18
-5.37053e-18
-5.03166e-18
-5.13202e-18
-5.26168e-18
-5.48895e-18
-5.29157e-18
-5.35989e-18
-5.28992e-18
-5.5376e-18
-4.74754e-18
-5.16329e-18
-4.69379e-18
-4.77233e-18
-5.28583e-18
-5.28764e-18
-5.21543e-18
-4.79087e-18
-5.00393e-18
-5.20659e-18
-5.46305e-18
-5.52474e-18
-5.26135e-18
-5.29684e-18
-5.12789e-18
-5.06141e-18
-5.14985e-18
-5.53913e-18
-5.57469e-18
-5.17253e-18
-4.89573e-18
-4.67493e-18
-5.07413e-18
-5.12595e-18
-5.21606e-18
-5.19227e-18
-5.50472e-18
-5.5067e-18
-5.38348e-18
-5.2344e-18
-4.94763e-18
-5.35022e-18
-5.31443e-18
-5.07782e-18
-4.7786e-18
-5.19346e-18
-5.62298e-18
-5.27253e-18
-4.96651e-18
-5.29785e-18
-5.54516e-18
-4.69491e-18
-4.90617e-18
-5.10388e-18
-5.42127e-18
-5.26973e-18
-5.21802e-18
-5.72831e-18
-4.95848e-18
-5.18839e-18
-5.05495e-18
-5.13483e-18
-5.39897e-18
-5.16133e-18
-4.8981e-18
-5.31661e-18
-5.39919e-18
-5.68345e-18
-5.16873e-18
-5.24748e-18
-4.67748e-18
-5.2485e-18
-5.46528e-18
-5.06385e-18
-5.67901e-18
-5.11678e-18
-4.83102e-18
-4.76408e-18
-5.16673e-18
-5.93926e-18
-4.89879e-18
-4.77475e-18
-5.04585e-18
-4.84113e-18
-4.75328e-18
-4.51301e-18
-5.10287e-18
-5.92236e-18
-5.53814e-18
-5.07793e-18
-5.39451e-18
-5.91371e-18
-5.4102e-18
-5.49107e-18
-5.36059e-18
-4.85997e-18
-5.37786e-18
-5.34658e-18
-5.02505e-18
-4.86149e-18
-5.026e-18
-4.98062e-18
-5.4652e-18
-5.53158e-18
-5.1923e-18
-5.50789e-18
-5.17604e-18
-5.1479e-18
-5.04818e-18
-5.05049e-18
-5.24043e-18
-4.93483e-18
-4.79436e-18
-5.44197e-18
-5.61339e-18
-5.46926e-18
-4.96339e-18
-5.46865e-18
-5.55587e-18
-4.81156e-18
-9.30481e-18
-9.3495e-18
-9.54259e-18
-9.46326e-18
-1.02675e-17
-1.01012e-17
-9.68716e-18
-9.31799e-18
-1.01022e-17
-9.58552e-18
-9.69161e-18
-1.01844e-17
-9.43652e-18
-9.3849e-18
-1.01e-17
-1.03383e-17
-9.6807e-18
-8.96472e-18
-1.05576e-17
-9.97403e-18
-9.66039e-18
-1.03939e-17
-9.42776e-18
-9.31573e-18
-9.77439e-18
-9.45997e-18
-9.91074e-18
-9.48803e-18
-9.57894e-18
-8.854e-18
-1.02917e-17
-1.0022e-17
-1.03558e-17
-9.27738e-18
-9.52827e-18
-9.56473e-18
-9.05119e-18
-8.85002e-18
-9.53031e-18
-1.11265e-17
-9.18703e-18
-9.6587e-18
-9.51333e-18
-1.00065e-17
-1.01909e-17
-1.06798e-17
-1.05231e-17
-9.40389e-18
-9.49711e-18
-9.15272e-18
-9.51183e-18
-9.86745e-18
-9.36733e-18
-9.26936e-18
-1.01448e-17
-9.94596e-18
-9.51242e-18
-8.74198e-18
-8.86736e-18
-9.05439e-18
-1.00587e-17
-9.83559e-18
-9.31414e-18
-1.05783e-17
-9.37514e-18
-9.34956e-18
-1.00116e-17
-9.98638e-18
-9.75816e-18
-9.86177e-18
-1.00616e-17
-9.27395e-18
-9.92739e-18
-9.55346e-18
-8.70909e-18
-9.48999e-18
-9.86952e-18
-1.02818e-17
-1.04056e-17
-9.98385e-18
-9.41124e-18
-1.04296e-17
-9.36339e-18
-9.78195e-18
-9.8119e-18
-8.99474e-18
-1.04198e-17
-9.29498e-18
-1.02469e-17
-1.03486e-17
-1.01525e-17
-9.17339e-18
-9.00817e-18
-9.59516e-18
-1.02263e-17
-8.87703e-18
-9.74525e-18
-9.37453e-18
-1.00275e-17
-1.00009e-17
-8.21272e-18
-9.81354e-18
-1.0187e-17
-9.70195e-18
-9.73147e-18
-1.01155e-17
-9.88945e-18
-9.38655e-18
-9.66267e-18
-1.04295e-17
-9.85872e-18
-9.01876e-18
-9.92688e-18
-9.44097e-18
-9.90035e-18
-9.70385e-18
-1.03227e-17
-9.43253e-18
-9.64601e-18
-9.91305e-18
-1.05806e-17
-9.32905e-18
-9.44771e-18
-1.04299e-17
-8.82925e-18
-9.10399e-18
-1.02013e-17
-8.56212e-18
-1.04042e-17
-9.87061e-18
-1.037e-17
-9.47799e-18
-9.33556e-18
-9.45108e-18
-9.45578e-18
-9.92868e-18
-1.06529e-17
-1.04185e-17
-1.04726e-17
-9.49167e-18
-9.73849e-18
-9.52239e-18
-8.81247e-18
-9.5245e-18
-8.86581e-18
-8.98159e-18
-8.60465e-18
-9.40801e-18
-1.0665e-17
-9.62218e-18
-9.93287e-18
-1.00785e-17
-9.96736e-18
-9.77673e-18
-9.15954e-18
-8.79706e-18
-1.03314e-17
-1.0248e-17
-9.31705e-18
-9.68064e-18
-9.46435e-18
-9.58659e-18
-9.98458e-18
-1.02378e-17
-1.00865e-17
-1.01645e-17
-9.15732e-18
-9.06887e-18
-1.04964e-17
-9.64104e-18
-1.0134e-17
-9.98546e-18
-1.07156e-17
-9.61475e-18
-9.36087e-18
-8.70521e-18
-8.68291e-18
-9.73937e-18
-1.08048e-17
-1.01373e-17
-1.02325e-17
-9.67279e-18
-1.02901e-17
-8.89101e-18
-9.19961e-18
-9.96613e-18
-9.45289e-18
-9.73732e-18
-9.77531e-18
-9.23665e-18
-9.54156e-18
-1.02378e-17
-9.51766e-18
-9.4113e-18
-1.00305e-17
-1.02925e-17
-9.36364e-18
-9.63712e-18
-9.82571e-18
-1.07018e-17
-9.42189e-18
-9.83066e-18
-9.93914e-18
-9.43015e-18
-9.65118e-18
-9.64012e-18
-9.43274e-18
-9.47346e-18
-9.82123e-18
-9.60367e-18
-1.00853e-17
-9.35574e-18
-9.87758e-18
-9.05552e-18
-9.69052e-18
-1.02738e-17
-9.51892e-18
-8.29542e-18
-9.42107e-18
-1.03383e-17
-9.59279e-18
-9.5296e-18
-1.01734e-17
-1.01461e-17
-9.746e-18
-9.65172e-18
-1.0187e-17
-1.02317e-17
-1.00838e-17
-1.01872e-17
-1.00543e-17
-1.02958e-17
-1.01673e-17
-9.92268e-18
-8.27608e-18
-8.493e-18
-1.02137e-17
-8.98343e-18
-9.67278e-18
-9.34457e-18
-9.88898e-18
-1.02607e-17
-1.05156e-17
-9.68226e-18
-9.18e-18
-9.8842e-18
-9.87608e-18
-8.99338e-18
-9.12677e-18
-1.0505e-17
-1.0208e-17
-8.64181e-18
-9.20151e-18
-1.00743e-17
-9.91917e-18
-9.43901e-18
-1.80524e-17
-1.88759e-17
-1.64871e-17
-1.79401e-17
-1.85856e-17
-2.12397e-17
-1.91888e-17
-1.94385e-17
-1.85898e-17
-1.53141e-17
-1.69804e-17
-1.81825e-17
-1.70468e-17
-1.73836e-17
-1.76191e-17
-1.83301e-17
-1.8696e-17
-1.73583e-17
-1.77838e-17
-1.81711e-17
-1.76906e-17
-1.88962e-17
-1.7712e-17
-1.96038e-17
-1.9678e-17
-1.73707e-17
-1.83447e-17
-1.98439e-17
-1.90157e-17
-1.88715e-17
-1.76706e-17
-1.80832e-17
-2.02268e-17
-1.57629e-17
-1.6522e-17
-1.81273e-17
-1.73615e-17
-1.76214e-17
-1.58672e-17
-1.97425e-17
-1.68119e-17
-1.84124e-17
-1.92792e-17
-1.73099e-17
-1.74896e-17
-1.97027e-17
-1.84137e-17
-1.75774e-17
-1.84075e-17
-1.68317e-17
-1.70348e-17
-1.89265e-17
-1.94184e-17
-1.88657e-17
-1.87236e-17
-1.77008e-17
-1.90261e-17
-1.75224e-17
-1.67429e-17
-1.78007e-17
-1.76385e-17
-1.7759e-17
-1.78372e-17
-1.86831e-17
-1.93387e-17
-1.8247e-17
-1.7178e-17
-2.00611e-17
-1.72219e-17
-1.73271e-17
-1.8403e-17
-1.63066e-17
-1.96382e-17
-1.77157e-17
-1.82257e-17
-1.91925e-17
-1.82337e-17
-1.74845e-17
-1.84713e-17
-1.73814e-17
-1.6359e-17
-1.78012e-17
-2.06137e-17
-1.97594e-17
-1.9032e-17
-1.8815e-17
-1.77283e-17
-1.79199e-17
-1.89843e-17
-1.76635e-17
-1.92044e-17
-1.86118e-17
-1.74548e-17
-1.86482e-17
-1.79088e-17
-1.70214e-17
-1.73104e-17
-1.66562e-17
-1.79502e-17
-1.80239e-17
-1.69214e-17
-1.82692e-17
-1.74381e-17
-1.76704e-17
-2.00225e-17
-1.89493e-17
-2.12609e-17
-1.85911e-17
-1.84411e-17
-1.96323e-17
-1.73212e-17
-1.81257e-17
-1.71369e-17
-1.54107e-17
-1.75537e-17
-1.7725e-17
-1.88744e-17
-1.83337e-17
-1.87289e-17
-1.8215e-17
-1.82917e-17
-1.84259e-17
-1.92606e-17
-1.89718e-17
-1.65428e-17
-1.60073e-17
-1.64017e-17
-1.79574e-17
-1.94927e-17
-1.934e-17
-1.95876e-17
-1.91976e-17
-1.74626e-17
-1.62887e-17
-1.58293e-17
-1.83305e-17
-1.87019e-17
-1.70842e-17
-1.95597e-17
-1.91469e-17
-1.92073e-17
-1.69536e-17
-2.02784e-17
-1.79026e-17
-1.67472e-17
-1.88653e-17
-1.51942e-17
-1.76456e-17
-1.70212e-17
-1.67614e-17
-1.89666e-17
-2.07244e-17
-1.92357e-17
-1.73007e-17
-1.58305e-17
-1.54229e-17
-1.85943e-17
-1.84961e-17
-1.6833e-17
-1.88233e-17
-1.93949e-17
-1.8731e-17
-1.86074e-17
-1.73659e-17
-1.66966e-17
-1.74825e-17
-1.9058e-17
-1.96583e-17
-2.10698e-17
-1.80159e-17
-1.9216e-17
-1.87999e-17
-1.70413e-17
-1.77615e-17
-1.97081e-17
-1.67989e-17
-1.8817e-17
-1.88814e-17
-1.88658e-17
-1.82915e-17
-1.72049e-17
-1.70442e-17
-1.76458e-17
-1.69261e-17
-1.96204e-17
-1.78946e-17
-1.87559e-17
-1.86702e-17
-1.77524e-17
-1.59039e-17
-1.85244e-17
-1.75906e-17
-1.73776e-17
-1.93041e-17
-1.93026e-17
-1.99404e-17
-1.89496e-17
-1.70069e-17
-1.75165e-17
-1.58446e-17
-1.59673e-17
-1.72214e-17
-1.97895e-17
-2.17561e-17
-2.03952e-17
-1.82981e-17
-1.70617e-17
-1.88444e-17
-1.78457e-17
-1.76168e-17
-1.80397e-17
-1.74664e-17
-1.94489e-17
-1.81102e-17
-1.8978e-17
-1.85729e-17
-1.65034e-17
-1.58025e-17
-1.75917e-17
-1.9566e-17
-1.84092e-17
-1.81428e-17
-1.87979e-17
-1.74065e-17
-1.68169e-17
-1.83482e-17
-1.83396e-17
-1.83942e-17
-1.84169e-17
-1.88284e-17
-1.80121e-17
-1.90261e-17
-1.98216e-17
-1.87294e-17
-1.7465e-17
-1.68626e-17
-1.8001e-17
-1.89554e-17
-1.93004e-17
-1.65802e-17
-1.67235e-17
-1.68491e-17
-1.76139e-17
-1.83249e-17
-1.84224e-17
-1.8838e-17
-1.84343e-17
-1.91798e-17
-1.8096e-17
-1.79417e-17
-1.66232e-17
-1.63373e-17
-1.87682e-17
-1.97614e-17
-1.89494e-17
-1.74257e-17
-3.32223e-17
-3.33657e-17
-3.41647e-17
-3.33415e-17
-3.50067e-17
-3.71824e-17
-3.31783e-17
-3.83707e-17
-3.37057e-17
-2.90675e-17
-2.97424e-17
-3.53761e-17
-3.24355e-17
-3.44796e-17
-3.12292e-17
-3.40882e-17
-3.5468e-17
-3.44245e-17
-3.29099e-17
-3.43676e-17
-3.63537e-17
-3.44377e-17
-3.18632e-17
-3.53968e-17
-3.38341e-17
-2.98878e-17
-3.09493e-17
-3.62965e-17
-3.92146e-17
-3.58348e-17
-3.49204e-17
-3.46021e-17
-3.1823e-17
-3.06287e-17
-3.3371e-17
-3.60841e-17
-3.54563e-17
-3.51618e-17
-3.55388e-17
-3.19362e-17
-3.11534e-17
-3.31628e-17
-3.40679e-17
-3.24757e-17
-3.23963e-17
-3.27254e-17
-3.66282e-17
-3.50808e-17
-3.33833e-17
-3.35232e-17
-3.27368e-17
-3.06197e-17
-3.61506e-17
-3.19767e-17
-3.20726e-17
-3.49715e-17
-3.25614e-17
-3.21221e-17
-3.61033e-17
-3.43225e-17
-2.94072e-17
-3.65242e-17
-3.52637e-17
-3.33926e-17
-3.69797e-17
-3.52042e-17
-3.32816e-17
-3.09549e-17
-3.13809e-17
-3.6856e-17
-3.30076e-17
-3.33588e-17
-3.28344e-17
-3.5413e-17
-3.08446e-17
-3.61541e-17
-3.7519e-17
-3.47515e-17
-3.84187e-17
-3.39621e-17
-3.27111e-17
-3.34819e-17
-3.12309e-17
-3.45601e-17
-3.47079e-17
-3.50387e-17
-3.43806e-17
-3.30307e-17
-3.55973e-17
-3.20602e-17
-3.31328e-17
-3.5018e-17
-3.60784e-17
-3.35005e-17
-3.44651e-17
-3.42364e-17
-3.33534e-17
-3.26682e-17
-3.44305e-17
-3.12042e-17
-3.32334e-17
-3.18168e-17
-3.09652e-17
-3.52032e-17
-3.5607e-17
-3.33993e-17
-3.82172e-17
-3.55584e-17
-3.23271e-17
-3.27779e-17
-3.51084e-17
-3.49196e-17
-3.0548e-17
-3.35767e-17
-3.48071e-17
-3.14384e-17
-3.41232e-17
-3.92791e-17
-3.337e-17
-3.15161e-17
-2.91404e-17
-3.19276e-17
-3.17708e-17
-3.62767e-17
-3.57098e-17
-3.58081e-17
-3.46947e-17
-3.6525e-17
-3.4746e-17
-3.55526e-17
-3.47523e-17
-3.43884e-17
-3.17193e-17
-3.37454e-17
-3.12127e-17
-2.89595e-17
-3.35718e-17
-3.37899e-17
-3.33707e-17
-3.28923e-17
-3.1101e-17
-3.56395e-17
-3.77615e-17
-3.37344e-17
-3.2457e-17
-3.42167e-17
-3.25258e-17
-3.63241e-17
-3.34045e-17
-3.40446e-17
-3.54337e-17
-3.453e-17
-3.29321e-17
-3.40044e-17
-3.29424e-17
-3.32464e-17
-3.10403e-17
-3.53471e-17
-3.60671e-17
-3.52532e-17
-3.62022e-17
-2.9316e-17
-3.27557e-17
-3.19316e-17
-3.31923e-17
-3.34945e-17
-3.3414e-17
-3.34509e-17
-3.3801e-17
-3.40402e-17
-3.6955e-17
-3.48484e-17
-3.24556e-17
-3.5445e-17
-3.66164e-17
-3.29296e-17
-3.32342e-17
-3.78969e-17
-3.71213e-17
-3.28135e-17
-3.37057e-17
-3.06478e-17
-3.02137e-17
-3.23992e-17
-3.46596e-17
-3.32716e-17
-3.57227e-17
-3.46968e-17
-3.46041e-17
-3.50433e-17
-3.27017e-17
-3.53506e-17
-3.41105e-17
-3.45535e-17
-3.38536e-17
-3.28625e-17
-3.59083e-17
-3.40597e-17
-3.64215e-17
-3.42489e-17
-3.06039e-17
-3.1935e-17
-3.4105e-17
-3.25462e-17
-3.59004e-17
-3.33946e-17
-3.21293e-17
-3.3258e-17
-3.37041e-17
-3.40095e-17
-3.16752e-17
-3.41203e-17
-3.30821e-17
-3.28346e-17
-3.616e-17
-3.64916e-17
-3.43976e-17
-3.52882e-17
-3.50667e-17
-3.29572e-17
-3.66831e-17
-3.66606e-17
-3.36302e-17
-2.93897e-17
-3.05221e-17
-3.46886e-17
-3.87806e-17
-3.44091e-17
-3.37632e-17
-3.18558e-17
-3.04577e-17
-3.41259e-17
-3.22531e-17
-3.16264e-17
-3.5228e-17
-3.2886e-17
-3.33116e-17
-3.22296e-17
-3.44752e-17
-3.58581e-17
-3.74892e-17
-3.23323e-17
-3.23477e-17
-3.51435e-17
-3.39393e-17
-3.39747e-17
-3.38846e-17
-3.44544e-17
-3.25808e-17
-3.299e-17
-3.39613e-17
-3.38042e-17
-3.65915e-17
-3.363e-17
-3.55405e-17
-3.54467e-17
-6.42306e-17
-6.52991e-17
-6.18156e-17
-6.0524e-17
-5.97747e-17
-5.68375e-17
-6.39523e-17
-6.88947e-17
-6.53158e-17
-6.11297e-17
-6.04492e-17
-6.47529e-17
-5.83309e-17
-6.54783e-17
-6.13119e-17
-6.61488e-17
-6.12248e-17
-6.62603e-17
-6.23034e-17
-6.53786e-17
-6.59461e-17
-6.36515e-17
-6.26209e-17
-6.68596e-17
-7.06474e-17
-6.31983e-17
-6.17762e-17
-5.85355e-17
-6.18935e-17
-6.21705e-17
-6.53092e-17
-6.59885e-17
-6.12556e-17
-5.5577e-17
-6.4579e-17
-6.45358e-17
-6.06618e-17
-6.31574e-17
-6.55998e-17
-6.22257e-17
-6.50233e-17
-6.39395e-17
-6.70803e-17
-6.80742e-17
-6.00857e-17
-6.2245e-17
-5.95737e-17
-6.04742e-17
-6.58476e-17
-6.38628e-17
-6.56735e-17
-6.11188e-17
-6.40021e-17
-6.33569e-17
-6.16696e-17
-6.35441e-17
-6.42899e-17
-6.86236e-17
-6.68046e-17
-6.26673e-17
-5.63252e-17
-6.44231e-17
-6.4231e-17
-6.14489e-17
-6.64648e-17
-5.93961e-17
-6.5613e-17
-5.8656e-17
-6.05084e-17
-6.28184e-17
-6.92412e-17
-6.67209e-17
-6.23132e-17
-6.39451e-17
-6.73909e-17
-6.62392e-17
-6.59181e-17
-5.66776e-17
-6.59371e-17
-6.48105e-17
-5.78331e-17
-5.88769e-17
-6.20167e-17
-6.04703e-17
-6.35191e-17
-7.14589e-17
-5.74331e-17
-6.01295e-17
-6.00682e-17
-6.04348e-17
-6.2801e-17
-6.74484e-17
-6.77829e-17
-7.13938e-17
-6.14653e-17
-5.81303e-17
-6.82454e-17
-6.58962e-17
-6.29373e-17
-6.26821e-17
-6.49897e-17
-6.39033e-17
-5.92372e-17
-6.28701e-17
-6.08868e-17
-6.3139e-17
-6.86953e-17
-6.03942e-17
-5.41786e-17
-6.47552e-17
-6.13745e-17
-6.0467e-17
-6.88149e-17
-5.87208e-17
-6.52297e-17
-6.46517e-17
-6.59625e-17
-6.44279e-17
-5.77199e-17
-6.2719e-17
-6.3353e-17
-6.33623e-17
-6.30524e-17
-7.16391e-17
-6.9039e-17
-6.44497e-17
-6.40407e-17
-6.86102e-17
-5.99328e-17
-6.42262e-17
-6.79053e-17
-6.12621e-17
-5.69415e-17
-5.77691e-17
-6.39055e-17
-6.03831e-17
-6.51035e-17
-6.23113e-17
-6.3536e-17
-6.07349e-17
-5.73974e-17
-6.57998e-17
-6.42533e-17
-6.22992e-17
-5.94857e-17
-6.10843e-17
-6.48993e-17
-6.73802e-17
-6.47355e-17
-6.4255e-17
-5.88585e-17
-6.68748e-17
-7.10949e-17
-6.85084e-17
-6.10485e-17
-5.51871e-17
-6.08467e-17
-7.09163e-17
-6.80059e-17
-6.12784e-17
-6.84064e-17
-6.06889e-17
-6.65716e-17
-5.13281e-17
-6.06009e-17
-6.08053e-17
-6.42938e-17
-6.32632e-17
-6.45691e-17
-6.422e-17
-6.31797e-17
-6.7852e-17
-6.26286e-17
-6.07658e-17
-6.83507e-17
-6.10272e-17
-6.30687e-17
-6.26765e-17
-6.36234e-17
-6.28486e-17
-6.47397e-17
-6.75855e-17
-6.14255e-17
-6.26524e-17
-6.24561e-17
-6.75569e-17
-5.83945e-17
-6.7868e-17
-6.12355e-17
-6.66091e-17
-6.14084e-17
-6.36601e-17
-6.18448e-17
-5.98292e-17
-6.71437e-17
-6.98161e-17
-6.13701e-17
-6.4793e-17
-6.0104e-17
-5.60805e-17
-6.08893e-17
-6.27052e-17
-6.24792e-17
-6.19907e-17
-6.41593e-17
-6.81956e-17
-6.43165e-17
-6.67763e-17
-5.93372e-17
-5.71988e-17
-6.33695e-17
-6.74828e-17
-6.40492e-17
-5.65424e-17
-7.02679e-17
-6.33129e-17
-6.15941e-17
-6.37031e-17
-6.95388e-17
-6.25963e-17
-6.37761e-17
-6.5458e-17
-6.3843e-17
-6.83304e-17
-6.29922e-17
-5.85215e-17
-5.84836e-17
-6.40258e-17
-5.77064e-17
-6.45228e-17
-6.31555e-17
-6.39269e-17
-6.61216e-17
-6.5841e-17
-6.19646e-17
-6.53499e-17
-6.33844e-17
-6.13566e-17
-6.4081e-17
-6.669e-17
-6.54389e-17
-6.05039e-17
-6.15425e-17
-6.03127e-17
-6.09105e-17
-6.16194e-17
-6.36264e-17
-5.7001e-17
-6.23391e-17
-5.94785e-17
-6.81321e-17
-6.58153e-17
-6.49252e-17
-6.72821e-17
-6.19037e-17
-6.44214e-17
-1.17313e-16
-1.20341e-16
-1.24303e-16
-1.2415e-16
-1.25363e-16
-1.18353e-16
-1.13552e-16
-1.22122e-16
-1.1084e-16
-1.32667e-16
-1.21972e-16
-1.04426e-16
-1.12579e-16
-1.11356e-16
-1.13144e-16
-1.20769e-16
-1.27121e-16
-1.2596e-16
-1.10761e-16
-1.18313e-16
-1.20832e-16
-1.11169e-16
-1.16531e-16
-1.28613e-16
-1.20763e-16
-1.16558e-16
-1.23743e-16
-1.11678e-16
-1.27333e-16
-1.12684e-16
-1.06776e-16
-1.0902e-16
-1.06839e-16
-1.16548e-16
-1.22935e-16
-1.28626e-16
-1.23699e-16
-1.17743e-16
-1.17262e-16
-1.13244e-16
-1.24719e-16
-1.20993e-16
-1.21904e-16
-1.08786e-16
-1.17721e-16
-1.1903e-16
-1.16505e-16
-1.16089e-16
-1.1984e-16
-1.19472e-16
-1.16737e-16
-1.20854e-16
-1.19199e-16
-1.16522e-16
-1.27113e-16
-1.24716e-16
-1.33692e-16
-1.20736e-16
-1.03469e-16
-1.24194e-16
-1.11013e-16
-1.03238e-16
-1.13969e-16
-1.11642e-16
-1.18322e-16
-1.15215e-16
-1.15966e-16
-1.21594e-16
-1.15288e-16
-1.26517e-16
-1.20888e-16
-1.23685e-16
-1.14368e-16
-1.17913e-16
-1.26355e-16
-1.02482e-16
-1.32536e-16
-1.19177e-16
-1.20679e-16
-1.18143e-16
-1.17114e-16
-1.19328e-16
-1.15923e-16
-1.09593e-16
-1.17962e-16
-1.30497e-16
-1.21649e-16
-1.2827e-16
-1.20654e-16
-9.77465e-17
-1.13758e-16
-1.22559e-16
-1.28138e-16
-1.09031e-16
-1.11378e-16
-1.08383e-16
-1.21507e-16
-1.25914e-16
-1.14477e-16
-1.20839e-16
-1.12681e-16
-1.12608e-16
-1.12179e-16
-1.1781e-16
-1.10903e-16
-1.1265e-16
-1.34207e-16
-1.16748e-16
-1.24602e-16
-1.25408e-16
-1.2493e-16
-1.25618e-16
-1.24812e-16
-1.07305e-16
-1.13743e-16
-1.18669e-16
-1.17297e-16
-1.15645e-16
-1.13581e-16
-1.17259e-16
-1.25344e-16
-1.16787e-16
-1.16355e-16
-1.23959e-16
-1.14059e-16
-1.05501e-16
-1.26071e-16
-1.26162e-16
-1.23804e-16
-1.23757e-16
-1.29629e-16
-1.20034e-16
-1.16056e-16
-1.08063e-16
-1.07642e-16
-1.18138e-16
-1.05867e-16
-1.20909e-16
-1.13586e-16
-1.12152e-16
-1.16369e-16
-1.25985e-16
-1.24491e-16
-1.27472e-16
-1.16363e-16
-1.11378e-16
-1.15461e-16
-1.16087e-16
-1.27905e-16
-1.23202e-16
-1.21522e-16
-1.17677e-16
-1.16573e-16
-1.16877e-16
-1.03362e-16
-1.21475e-16
-1.16942e-16
-1.16264e-16
-1.25023e-16
-1.22427e-16
-1.26927e-16
-1.15274e-16
-1.21309e-16
-1.16344e-16
-1.27178e-16
-1.17804e-16
-1.21029e-16
-1.00662e-16
-1.14623e-16
-1.2719e-16
-1.16883e-16
-1.17919e-16
-1.25857e-16
-1.16978e-16
-1.18972e-16
-1.18851e-16
-1.1479e-16
-1.10304e-16
-1.20816e-16
-1.15433e-16
-1.22719e-16
-1.33731e-16
-1.14881e-16
-1.04605e-16
-1.1846e-16
-1.29283e-16
-1.11663e-16
-1.16051e-16
-1.20928e-16
-1.13574e-16
-1.26298e-16
-1.19946e-16
-1.28208e-16
-1.11946e-16
-1.25241e-16
-1.14835e-16
-1.06162e-16
-1.17715e-16
-1.08393e-16
-1.06481e-16
-1.21726e-16
-1.15053e-16
-1.22701e-16
-1.11759e-16
-1.13314e-16
-1.13433e-16
-1.22105e-16
-1.23341e-16
-1.26679e-16
-1.21081e-16
-1.16909e-16
-1.23225e-16
-1.19606e-16
-1.25401e-16
-1.08287e-16
-1.07528e-16
-1.16209e-16
-1.28572e-16
-1.3975e-16
-1.19591e-16
-1.163e-16
-1.22848e-16
-1.16791e-16
-1.13977e-16
-1.21717e-16
-1.21325e-16
-1.07444e-16
-1.2591e-16
-1.15857e-16
-1.10622e-16
-1.17438e-16
-1.20298e-16
-1.25989e-16
-1.25602e-16
-1.24005e-16
-1.13352e-16
-1.14847e-16
-1.12153e-16
-1.21742e-16
-1.16332e-16
-1.14446e-16
-1.18117e-16
-1.08137e-16
-1.08021e-16
-1.28892e-16
-1.21704e-16
-1.10523e-16
-1.17238e-16
-1.25308e-16
-1.23367e-16
-1.24944e-16
-1.16343e-16
-1.21196e-16
-1.17937e-16
-1.15479e-16
-1.04108e-16
-2.03021e-16
-2.33864e-16
-2.18072e-16
-2.39654e-16
-2.29464e-16
-2.26575e-16
-2.13326e-16
-2.14725e-16
-2.04969e-16
-2.26974e-16
-2.19557e-16
-2.11873e-16
-2.11162e-16
-2.42515e-16
-2.5393e-16
-2.30796e-16
-2.29851e-16
-2.06533e-16
-2.21678e-16
-2.23065e-16
-1.89883e-16
-2.13494e-16
-2.3937e-16
-2.30646e-16
-2.0498e-16
-2.16727e-16
-2.17476e-16
-2.13594e-16
-2.3113e-16
-2.04977e-16
-2.13388e-16
-2.14284e-16
-2.16602e-16
-2.03464e-16
-2.19706e-16
-2.19053e-16
-2.13176e-16
-2.41066e-16
-2.20212e-16
-2.45235e-16
-2.13443e-16
-2.32846e-16
-2.18008e-16
-2.07393e-16
-2.35288e-16
-2.35392e-16
-2.296e-16
-2.15577e-16
-2.10336e-16
-2.0379e-16
-2.21221e-16
-2.175e-16
-2.38296e-16
-2.40665e-16
-2.31368e-16
-2.29434e-16
-2.40483e-16
-2.28984e-16
-2.14844e-16
-2.16045e-16
-2.06662e-16
-2.01756e-16
-2.14199e-16
-2.33868e-16
-2.07173e-16
-2.08109e-16
-2.00491e-16
-2.42864e-16
-2.34906e-16
-2.13012e-16
-2.35508e-16
-2.16357e-16
-2.07088e-16
-2.28737e-16
-2.16867e-16
-1.92835e-16
-2.48502e-16
-2.25898e-16
-2.1914e-16
-2.21562e-16
-2.23164e-16
-2.21795e-16
-2.42095e-16
-1.93846e-16
-2.23195e-16
-2.13255e-16
-2.29141e-16
-2.10309e-16
-2.06657e-16
-1.93921e-16
-2.04299e-16
-2.38193e-16
-2.45771e-16
-2.17943e-16
-2.19419e-16
-2.04751e-16
-2.13117e-16
-2.49715e-16
-2.2893e-16
-2.38892e-16
-2.10431e-16
-2.21802e-16
-2.08988e-16
-2.14742e-16
-2.1793e-16
-1.93878e-16
-2.20358e-16
-2.24698e-16
-2.55536e-16
-2.19932e-16
-2.14657e-16
-2.33059e-16
-2.05521e-16
-2.25142e-16
-2.33255e-16
-2.27235e-16
-2.24332e-16
-2.03639e-16
-2.01238e-16
-2.25715e-16
-2.22976e-16
-2.07073e-16
-2.48095e-16
-2.27192e-16
-2.26095e-16
-2.31582e-16
-2.51738e-16
-2.15904e-16
-2.08433e-16
-2.31305e-16
-2.24282e-16
-2.20908e-16
-2.14911e-16
-2.32777e-16
-2.42226e-16
-2.3371e-16
-2.13468e-16
-1.89666e-16
-2.04461e-16
-2.01977e-16
-2.3223e-16
-2.32226e-16
-2.1761e-16
-2.37136e-16
-2.24791e-16
-2.28725e-16
-2.21102e-16
-2.13356e-16
-2.11093e-16
-2.13567e-16
-2.20271e-16
-2.26242e-16
-2.19799e-16
-2.05349e-16
-2.16561e-16
-2.09245e-16
-1.95621e-16
-1.98649e-16
-2.20851e-16
-2.42826e-16
-2.30892e-16
-2.22545e-16
-2.08662e-16
-2.30929e-16
-2.5239e-16
-2.27219e-16
-2.00706e-16
-2.1662e-16
-2.13092e-16
-2.31313e-16
-2.13658e-16
-2.23088e-16
-2.37508e-16
-2.28871e-16
-2.22988e-16
-2.04622e-16
-2.14359e-16
-2.28893e-16
-2.27522e-16
-2.09741e-16
-2.09776e-16
-2.34299e-16
-2.3668e-16
-2.09591e-16
-2.40921e-16
-2.36491e-16
-2.08134e-16
-2.13454e-16
-2.28579e-16
-2.28106e-16
-2.29617e-16
-2.32264e-16
-2.1036e-16
-1.92824e-16
-1.97472e-16
-2.07887e-16
-2.25682e-16
-2.23557e-16
-2.36539e-16
-2.22583e-16
-2.09128e-16
-2.03947e-16
-2.06942e-16
-1.99991e-16
-2.38262e-16
-2.48348e-16
-2.21839e-16
-2.30512e-16
-2.29802e-16
-2.21327e-16
-2.2787e-16
-2.10226e-16
-2.105e-16
-2.23599e-16
-1.99095e-16
-2.20814e-16
-2.27675e-16
-2.34551e-16
-2.40822e-16
-2.11027e-16
-2.26486e-16
-2.29756e-16
-2.17452e-16
-2.10996e-16
-2.23052e-16
-2.16166e-16
-2.1528e-16
-2.24207e-16
-2.334e-16
-2.26975e-16
-2.11906e-16
-2.23525e-16
-2.28358e-16
-2.29585e-16
-2.18329e-16
-2.15462e-16
-2.26257e-16
-2.17965e-16
-2.27483e-16
-2.22705e-16
-1.95664e-16
-2.2922e-16
-2.06994e-16
-1.98134e-16
-2.12593e-16
-2.26849e-16
-2.18013e-16
-2.2551e-16
-2.02009e-16
-2.18963e-16
-2.43516e-16
-2.13913e-16
-2.16504e-16
-2.28525e-16
-2.43154e-16
-2.31929e-16
-3.98266e-16
-3.7844e-16
-3.87502e-16
-3.79497e-16
-4.04156e-16
-4.05791e-16