# vtk DataFile Version 1.0
Electron Density - Current Sheet 
ASCII
DATASET STRUCTURED_POINTS
DIMENSIONS 256 128 1
ORIGIN 0 0 0
SPACING 0.15625 0.15625 1
POINT_DATA 32768
SCALARS rhoe float
LOOKUP_TABLE default
-1.76179e-18
-1.80304e-18
-1.88488e-18
-1.66883e-18
-1.81015e-18
-1.84819e-18
-1.83189e-18
-1.97773e-18
-1.97855e-18
-1.86324e-18
-1.95715e-18
-1.87633e-18
-1.7221e-18
-1.75755e-18
-2.01268e-18
-1.96515e-18
-1.9077e-18
-1.82115e-18
-1.76169e-18
-1.96322e-18
-2.08269e-18
-2.04171e-18
-1.86702e-18
-1.97276e-18
-2.09757e-18
-1.79102e-18
-1.84724e-18
-1.67739e-18
-1.81333e-18
-1.98753e-18
-1.9274e-18
-1.8494e-18
-1.77215e-18
-1.79455e-18
-2.00929e-18
-1.72118e-18
-1.92373e-18
-2.06494e-18
-1.89056e-18
-1.66313e-18
-1.84209e-18
-1.71096e-18
-2.05449e-18
-1.85798e-18
-1.62354e-18
-1.8348e-18
-1.87761e-18
-1.93926e-18
-1.91723e-18
-1.92756e-18
-1.84847e-18
-1.98769e-18
-1.88252e-18
-1.6631e-18
-1.71853e-18
-2.15711e-18
-1.68569e-18
-1.59067e-18
-1.60873e-18
-1.71994e-18
-1.63074e-18
-1.77807e-18
-1.94187e-18
-1.86205e-18
-1.91806e-18
-1.61166e-18
-1.75082e-18
-1.98888e-18
-1.83297e-18
-2.00633e-18
-1.99294e-18
-1.85812e-18
-1.52115e-18
-1.85362e-18
-1.78662e-18
-2.05921e-18
-1.98749e-18
-1.683e-18
-1.65622e-18
-1.95259e-18
-1.82128e-18
-2.00984e-18
-2.03843e-18
-1.62446e-18
-2.21928e-18
-1.71991e-18
-1.73326e-18
-2.04947e-18
-1.83475e-18
-1.82257e-18
-1.9135e-18
-1.80135e-18
-1.71332e-18
-1.76774e-18
-2.09984e-18
-1.82637e-18
-1.90401e-18
-1.88403e-18
-1.95825e-18
-1.69669e-18
-1.72377e-18
-1.76195e-18
-2.01066e-18
-1.97776e-18
-1.96049e-18
-1.94004e-18
-1.73452e-18
-1.88684e-18
-1.98238e-18
-2.01136e-18
-1.93855e-18
-1.82629e-18
-1.82671e-18
-1.57594e-18
-1.69798e-18
-2.01776e-18
-2.09334e-18
-1.94072e-18
-1.67114e-18
-2.0645e-18
-2.04716e-18
-1.76985e-18
-1.71848e-18
-1.84353e-18
-1.75158e-18
-1.8413e-18
-1.92144e-18
-1.81631e-18
-1.61696e-18
-1.96846e-18
-1.77511e-18
-1.89253e-18
-1.9795e-18
-2.12823e-18
-1.73671e-18
-2.01115e-18
-1.72494e-18
-1.88642e-18
-1.81529e-18
-1.82365e-18
-1.66011e-18
-2.0494e-18
-1.85363e-18
-1.59407e-18
-1.89866e-18
-1.78553e-18
-1.72545e-18
-1.8448e-18
-2.15382e-18
-1.86273e-18
-1.86761e-18
-1.83929e-18
-1.84236e-18
-1.94808e-18
-1.94308e-18
-1.782e-18
-1.94479e-18
-2.20554e-18
-1.81409e-18
-1.84001e-18
-1.60354e-18
-1.9082e-18
-2.09454e-18
-1.98827e-18
-2.12195e-18
-1.7427e-18
-1.84523e-18
-1.80455e-18
-1.83505e-18
-1.8599e-18
-1.96105e-18
-1.82572e-18
-2.22152e-18
-1.51813e-18
-2.21679e-18
-2.03092e-18
-1.92735e-18
-1.87512e-18
-2.05085e-18
-1.87901e-18
-1.75216e-18
-1.95017e-18
-1.83626e-18
-2.05261e-18
-1.9859e-18
-1.43184e-18
-1.77639e-18
-1.8718e-18
-1.86038e-18
-1.90542e-18
-1.89952e-18
-1.89653e-18
-1.71858e-18
-1.91514e-18
-1.91891e-18
-1.78132e-18
-1.80703e-18
-1.7396e-18
-1.77868e-18
-1.67879e-18
-1.93552e-18
-1.82319e-18
-1.72113e-18
-1.81652e-18
-1.47561e-18
-2.04414e-18
-1.89989e-18
-1.83207e-18
-1.80359e-18
-1.74333e-18
-1.72575e-18
-1.85992e-18
-1.86216e-18
-1.72189e-18
-1.87817e-18
-1.69738e-18
-1.60342e-18
-2.17075e-18
-1.95076e-18
-1.8437e-18
-1.82479e-18
-1.84489e-18
-2.02195e-18
-1.93467e-18
-1.79827e-18
-1.78984e-18
-1.88076e-18
-1.873e-18
-1.93399e-18
-1.93341e-18
-1.97786e-18
-1.88562e-18
-1.87143e-18
-2.15717e-18
-1.91938e-18
-1.57112e-18
-1.99937e-18
-1.86795e-18
-1.8341e-18
-1.57085e-18
-1.95472e-18
-2.05905e-18
-1.80097e-18
-1.83242e-18
-1.67476e-18
-1.98907e-18
-1.78215e-18
-1.98404e-18
-1.87024e-18
-1.81232e-18
-1.86896e-18
-1.88422e-18
-1.79131e-18
-1.72824e-18
-1.73941e-18
-1.83862e-18
-2.62369e-18
-2.88135e-18
-3.0465e-18
-3.04939e-18
-2.77315e-18
-2.97287e-18
-2.57465e-18
-2.88395e-18
-2.7412e-18
-2.59498e-18
-2.66582e-18
-2.89568e-18
-3.05258e-18
-2.69749e-18
-2.61983e-18
-2.83262e-18
-2.89097e-18
-2.94539e-18
-2.94688e-18
-2.64811e-18
-2.78123e-18
-2.74383e-18
-2.8e-18
-2.70112e-18
-3.12857e-18
-2.61367e-18
-2.78648e-18
-2.5777e-18
-2.84764e-18
-2.95543e-18
-2.9001e-18
-2.54694e-18
-2.79321e-18
-2.8477e-18
-2.94152e-18
-2.78895e-18
-3.0411e-18
-2.85484e-18
-2.84836e-18
-2.74969e-18
-2.77918e-18
-2.58905e-18
-3.03537e-18
-2.69703e-18
-2.65166e-18
-2.81329e-18
-2.99694e-18
-2.84377e-18
-2.50174e-18
-2.85168e-18
-2.87787e-18
-2.85126e-18
-2.89871e-18
-2.97714e-18
-2.59392e-18
-2.67738e-18
-2.84228e-18
-2.79929e-18
-2.65354e-18
-2.86516e-18
-2.92966e-18
-2.98885e-18
-2.80427e-18
-2.61131e-18
-2.9016e-18
-2.73635e-18
-2.98626e-18
-2.92133e-18
-2.6661e-18
-2.86974e-18
-2.8932e-18
-2.89432e-18
-2.88003e-18
-2.93648e-18
-2.90859e-18
-2.71809e-18
-2.64346e-18
-2.79834e-18
-2.78102e-18
-2.83763e-18
-2.84472e-18
-2.74694e-18
-2.68548e-18
-2.56068e-18
-2.50313e-18
-2.82305e-18
-3.01122e-18
-2.96889e-18
-2.8131e-18
-2.74876e-18
-3.16779e-18
-2.82885e-18
-2.61665e-18
-2.68135e-18
-2.81827e-18
-2.96567e-18
-2.88872e-18
-2.74054e-18
-2.8263e-18
-2.74761e-18
-2.72119e-18
-2.94643e-18
-2.85619e-18
-2.87543e-18
-2.74572e-18
-2.71485e-18
-2.58834e-18
-3.03326e-18
-2.99182e-18
-2.72104e-18
-2.61003e-18
-2.73988e-18
-2.90553e-18
-2.79964e-18
-2.69324e-18
-2.88992e-18
-2.85699e-18
-2.85752e-18
-2.66301e-18
-2.85453e-18
-3.0239e-18
-2.99442e-18
-3.01742e-18
-2.45367e-18
-2.82964e-18
-2.85586e-18
-3.21398e-18
-3.02118e-18
-2.79074e-18
-2.81442e-18
-2.7478e-18
-2.91118e-18
-2.98923e-18
-2.86518e-18
-2.37414e-18
-2.64237e-18
-2.82993e-18
-2.95528e-18
-2.84373e-18
-2.85027e-18
-2.63121e-18
-2.81405e-18
-2.79907e-18
-3.03619e-18
-2.94738e-18
-2.9678e-18
-2.72018e-18
-2.81345e-18
-2.69435e-18
-2.79662e-18
-2.9351e-18
-2.94555e-18
-2.96072e-18
-2.93641e-18
-2.72965e-18
-2.92089e-18
-3.00903e-18
-2.84301e-18
-2.81584e-18
-2.80311e-18
-2.54302e-18
-2.92561e-18
-2.88192e-18
-2.781e-18
-2.97622e-18
-2.8748e-18
-2.69184e-18
-2.7394e-18
-2.68546e-18
-2.92203e-18
-2.81526e-18
-2.96769e-18
-2.90265e-18
-2.80468e-18
-2.84545e-18
-2.81198e-18
-2.6638e-18
-2.861e-18
-2.85731e-18
-2.77771e-18
-2.65813e-18
-2.82074e-18
-2.64318e-18
-2.88372e-18
-2.87896e-18
-2.75476e-18
-2.57115e-18
-2.65948e-18
-2.68275e-18
-2.88551e-18
-2.86475e-18
-2.70771e-18
-2.59364e-18
-2.84636e-18
-2.82492e-18
-2.89524e-18
-2.80349e-18
-2.78393e-18
-2.65011e-18
-2.9245e-18
-2.8286e-18
-2.84173e-18
-3.02008e-18
-2.5253e-18
-2.7021e-18
-2.83612e-18
-2.7664e-18
-3.0554e-18
-2.98618e-18
-2.99775e-18
-2.8572e-18
-2.94206e-18
-2.75383e-18
-2.99424e-18
-2.87059e-18
-2.77302e-18
-2.82537e-18
-2.75198e-18
-2.74748e-18
-2.99658e-18
-2.66709e-18
-2.82692e-18
-3.13245e-18
-2.88634e-18
-2.78126e-18
-2.77914e-18
-2.99478e-18
-2.66282e-18
-2.64836e-18
-2.8539e-18
-2.50484e-18
-2.66806e-18
-2.69462e-18
-2.94085e-18
-2.91937e-18
-2.84997e-18
-2.7881e-18
-2.64761e-18
-2.90263e-18
-2.73794e-18
-2.75219e-18
-2.97176e-18
-2.66426e-18
-2.81376e-18
-2.80542e-18
-2.76908e-18
-2.53354e-18
-2.87195e-18
-3.0828e-18
-2.6763e-18
-2.62358e-18
-2.86925e-18
-3.05597e-18
-2.76784e-18
-3.13259e-18
-2.91686e-18
-5.49124e-18
-5.07344e-18
-5.79725e-18
-5.07227e-18
-5.26041e-18
-5.9444e-18
-4.98425e-18
-4.74429e-18
-5.14175e-18
-5.08813e-18
-4.72047e-18
-5.10032e-18
-5.71315e-18
-5.47314e-18
-5.22474e-18
-5.11518e-18
-5.4815e-18
-5.16284e-18
-5.39921e-18
-4.74316e-18
-4.81581e-18
-5.00056e-18
-5.84173e-18
-5.26527e-18
-4.93435e-18
-4.9884e-18
-5.17456e-18
-4.9103e-18
-4.81189e-18
-5.20724e-18
-4.95137e-18
-5.18827e-18
-4.97845e-18
-5.22125e-18
-5.01096e-18
-5.08273e-18
-5.43018e-18
-5.27223e-18
-5.64432e-18
-5.14115e-18
-4.89313e-18
-5.18664e-18
-5.8345e-18
-4.77272e-18
-5.42319e-18
-5.19287e-18
-5.48822e-18
-5.36152e-18
-5.1e-18
-5.00214e-18
-5.2953e-18
-4.9832e-18
-5.27952e-18
-5.27231e-18
-4.83546e-18
-5.28186e-18
-4.90243e-18
-5.51701e-18
-5.22059e-18
-5.89252e-18
-5.1463e-18
-5.36425e-18
-5.20792e-18
-4.92771e-18
-4.95765e-18
-5.28027e-18
-5.08636e-18
-5.59103e-18
-4.52331e-18
-4.89163e-18
-5.10186e-18
-4.96775e-18
-4.96144e-18
-5.36838e-18
-5.29098e-18
-5.52413e-18
-5.44807e-18
-5.32846e-18
-5.1614e-18
-5.55804e-18
-4.93165e-18
-5.01434e-18
-4.7149e-18
-5.31827e-18
-4.94862e-18
-5.02933e-18
-5.23665e-18
-4.86672e-18
-4.71113e-18
-5.17506e-18
-5.29697e-18
-4.96401e-18
-5.37011e-18
-5.40337e-18
-4.97588e-18
-5.14939e-18
-5.17826e-18
-5.18538e-18
-5.03236e-18
-5.07049e-18
-4.71163e-18
-5.17134e-18
-5.44147e-18
-4.85313e-18
-5.14368e-18
-4.77516e-18
-4.91709e-18
-4.78315e-18
-5.52808e-18
-5.07494e-18
-5.21987e-18
-5.12276e-18
-5.43185e-18
-5.05172e-18
-5.13054e-18
-5.20296e-18
-4.97943e-18
-5.07431e-18
-5.14288e-18
-4.88711e-18
-5.46722e-18
-5.09584e-18
-5.15254e-18
-5.2728e-18
-5.21442e-18
-4.84442e-18
-5.59172e-18
-5.0996e-18
-4.85868e-18
-5.22737e-18
-5.43525e-18
-5.02178e-18
-4.78562e-18
-5.25041e-18
-5.27325e-18
-5.42795e-18
-4.97687e-18
-4.99435e-18
-5.27443e-18
-5.08264e-18
-4.85998e-18
-4.85055e-18
-5.40282e-18
-5.01891e-18
-5.22903e-18
-5.70148e-18
-4.89113e-18
-5.42128e-18
-5.07626e-18
-4.89079e-18
-4.9863e-18
-4.81636e-18
-5.01866e-18
-5.04297e-18
-5.21315e-18
-4.77203e-18
-5.03183e-18
-5.28955e-18
-5.55723e-18
-5.34927e-18
-5.33239e-18
-5.34386e-18
-5.29564e-18
-4.33462e-18
-5.02423e-18
-5.37304e-18
-5.25702e-18
-5.36077e-18
-4.80289e-18
-4.91472e-18
-5.09605e-18
-5.21848e-18
-5.36391e-18
-5.22758e-18
-4.97455e-18
-5.08915e-18
-5.04281e-18
-5.15675e-18
-5.35971e-18
-4.96053e-18
-4.81875e-18
-5.67645e-18
-5.16124e-18
-4.81633e-18
-5.54151e-18
-5.36309e-18
-5.14831e-18
-4.60886e-18
-5.59652e-18
-5.1497e-18
-4.99202e-18
-5.37867e-18
-5.29525e-18
-5.54738e-18
-5.45485e-18
-5.26234e-18
-5.54554e-18
-4.96979e-18
-4.65561e-18
-5.29605e-18
-5.40986e-18
-4.76314e-18
-4.89022e-18
-5.56568e-18
-5.12824e-18
-4.73013e-18
-5.264e-18
-5.67653e-18
-5.39819e-18
-4.83437e-18
-5.10107e-18
-4.88748e-18
-5.20911e-18
-5.27616e-18
-4.97278e-18
-4.91122e-18
-5.42514e-18
-5.21401e-18
-5.25106e-18
-5.407e-18
-4.84744e-18
-5.38264e-18
-5.61762e-18
-5.1341e-18
-4.70499e-18
-5.37811e-18
-5.45268e-18
-5.06629e-18
-5.93977e-18
-5.28324e-18
-4.90808e-18
-5.30381e-18
-4.74851e-18
-5.23494e-18
-5.46196e-18
-4.92765e-18
-5.5703e-18
-5.41641e-18
-5.48323e-18
-5.33319e-18
-5.28859e-18
-5.2998e-18
-4.70202e-18
-5.61634e-18
-5.3493e-18
-5.29126e-18
-5.37566e-18
-5.08755e-18
-4.99922e-18
-5.10726e-18
-5.39995e-18
-5.5348e-18
-4.98147e-18
-5.125e-18
-5.10956e-18
-5.46802e-18
-1.06249e-17
-1.01305e-17
-9.40057e-18
-9.44091e-18
-9.60968e-18
-9.40529e-18
-9.65893e-18
-9.0106e-18
-1.02732e-17
-9.30251e-18
-9.83411e-18
-1.07819e-17
-9.85006e-18
-9.24876e-18
-1.01762e-17
-9.30433e-18
-8.6178e-18
-1.07182e-17
-9.35191e-18
-9.12424e-18
-9.73003e-18
-9.62391e-18
-1.01932e-17
-9.45975e-18
-9.98288e-18
-9.70863e-18
-9.86276e-18
-9.67226e-18
-1.00876e-17
-1.03492e-17
-9.84256e-18
-9.30771e-18
-9.51244e-18
-1.00739e-17
-1.01293e-17
-9.92255e-18
-1.04173e-17
-9.95248e-18
-9.09356e-18
-1.00427e-17
-1.02693e-17
-8.65951e-18
-9.44991e-18
-1.02602e-17
-9.28385e-18
-9.6781e-18
-1.0157e-17
-9.96072e-18
-9.5617e-18
-1.00883e-17
-9.90592e-18
-9.72697e-18
-1.02762e-17
-9.34251e-18
-9.19027e-18
-1.03904e-17
-1.02574e-17
-9.12516e-18
-9.57692e-18
-1.03094e-17
-9.82551e-18
-9.82968e-18
-8.99441e-18
-9.59666e-18
-8.84699e-18
-8.75126e-18
-1.00602e-17
-1.0108e-17
-9.81281e-18
-1.02602e-17
-9.20618e-18
-9.58574e-18
-9.98237e-18
-9.30698e-18
-9.16373e-18
-9.69973e-18
-9.32449e-18
-1.01283e-17
-1.00459e-17
-9.59595e-18
-9.2176e-18
-1.05228e-17
-9.43111e-18
-1.01504e-17
-8.97951e-18
-9.30382e-18
-9.03438e-18
-1.00051e-17
-9.53704e-18
-1.02609e-17
-9.88368e-18
-1.03312e-17
-9.49246e-18
-1.00897e-17
-9.26284e-18
-9.35521e-18
-9.81854e-18
-1.0045e-17
-9.90098e-18
-1.01578e-17
-9.33853e-18
-8.98825e-18
-9.06188e-18
-9.87204e-18
-9.735e-18
-9.55699e-18
-1.07152e-17
-1.01896e-17
-8.99464e-18
-9.50772e-18
-9.75587e-18
-9.61389e-18
-9.98194e-18
-8.90048e-18
-1.09137e-17
-9.52488e-18
-8.70381e-18
-1.01877e-17
-9.88507e-18
-9.66645e-18
-1.05042e-17
-9.13642e-18
-9.35488e-18
-9.16433e-18
-9.22748e-18
-9.96517e-18
-1.02326e-17
-9.84843e-18
-9.51474e-18
-9.76453e-18
-9.49816e-18
-1.02256e-17
-1.06351e-17
-9.32085e-18
-1.05335e-17
-9.72472e-18
-9.16527e-18
-8.82087e-18
-9.42622e-18
-9.90574e-18
-9.32809e-18
-1.01184e-17
-1.09506e-17
-9.68282e-18
-9.41035e-18
-9.78454e-18
-8.80388e-18
-9.9624e-18
-1.0301e-17
-8.54241e-18
-9.55823e-18
-9.97044e-18
-9.68828e-18
-9.73514e-18
-1.00887e-17
-9.25661e-18
-9.91551e-18
-9.94955e-18
-1.02046e-17
-9.35925e-18
-8.97924e-18
-9.47043e-18
-9.3219e-18
-8.89156e-18
-1.08474e-17
-1.05249e-17
-1.02395e-17
-9.87031e-18
-9.12921e-18
-1.00815e-17
-9.80601e-18
-1.00549e-17
-1.03435e-17
-9.31418e-18
-9.25667e-18
-9.29952e-18
-1.08403e-17
-9.52747e-18
-9.29204e-18
-9.70036e-18
-9.3344e-18
-9.90799e-18
-9.49306e-18
-9.7936e-18
-9.92572e-18
-1.01189e-17
-1.05325e-17
-1.01773e-17
-9.55947e-18
-9.71514e-18
-9.25147e-18
-1.07289e-17
-8.90121e-18
-9.41369e-18
-1.04055e-17
-9.99427e-18
-9.81235e-18
-9.18803e-18
-9.44883e-18
-9.7306e-18
-9.75449e-18
-9.71307e-18
-9.84169e-18
-1.01793e-17
-1.01178e-17
-9.02769e-18
-9.16474e-18
-9.99557e-18
-9.32735e-18
-9.57496e-18
-1.00308e-17
-1.02549e-17
-1.02766e-17
-9.41024e-18
-1.01638e-17
-9.36464e-18
-9.99295e-18
-9.5851e-18
-9.79825e-18
-1.0066e-17
-9.71927e-18
-8.6551e-18
-9.8848e-18
-9.68244e-18
-9.31566e-18
-9.95705e-18
-1.04256e-17
-9.49273e-18
-1.05263e-17
-1.03483e-17
-8.99975e-18
-9.31748e-18
-9.68671e-18
-9.64481e-18
-9.78167e-18
-9.49812e-18
-9.89417e-18
-9.54395e-18
-1.02752e-17
-1.01989e-17
-9.10354e-18
-9.08061e-18
-8.72806e-18
-9.81895e-18
-9.24296e-18
-9.3385e-18
-1.03042e-17
-1.01022e-17
-1.09796e-17
-9.39343e-18
-9.25144e-18
-1.00362e-17
-9.62949e-18
-1.00507e-17
-9.5696e-18
-9.03533e-18
-1.76337e-17
-1.97918e-17
-1.85236e-17
-1.78013e-17
-1.85693e-17
-1.85619e-17
-1.81663e-17
-1.8613e-17
-1.92375e-17
-1.74191e-17
-1.77861e-17
-1.9598e-17
-1.94168e-17
-1.71385e-17
-1.79384e-17
-1.85648e-17
-1.91508e-17
-1.92593e-17
-1.66816e-17
-1.91844e-17
-1.96972e-17
-1.80464e-17
-1.86777e-17
-1.66622e-17
-1.78147e-17
-1.85491e-17
-1.84594e-17
-1.70116e-17
-1.89756e-17
-1.87568e-17
-1.85362e-17
-1.83757e-17
-1.87555e-17
-1.77812e-17
-1.77396e-17
-1.93402e-17
-1.81248e-17
-1.84833e-17
-1.73955e-17
-1.66017e-17
-1.79272e-17
-1.77105e-17
-1.89813e-17
-1.90948e-17
-1.71523e-17
-2.06082e-17
-1.82242e-17
-1.69432e-17
-1.86773e-17
-1.79441e-17
-1.69459e-17
-1.94437e-17
-1.77015e-17
-1.83776e-17
-1.78305e-17
-1.84114e-17
-1.73837e-17
-1.86183e-17
-1.82136e-17
-1.67289e-17
-1.86012e-17
-1.93447e-17
-1.72861e-17
-1.86609e-17
-1.69996e-17
-1.68587e-17
-1.90611e-17
-1.96396e-17
-1.74796e-17
-1.88475e-17
-1.9192e-17
-1.77682e-17
-1.83072e-17
-1.77636e-17
-1.69273e-17
-1.88608e-17
-1.86876e-17
-1.79594e-17
-1.95998e-17
-1.93444e-17
-1.79906e-17
-1.8471e-17
-1.87078e-17
-1.8026e-17
-1.93338e-17
-1.79832e-17
-1.70939e-17
-1.88693e-17
-2.0024e-17
-1.78357e-17
-1.80375e-17
-1.99275e-17
-1.79491e-17
-1.67741e-17
-1.69352e-17
-1.88261e-17
-2.00184e-17
-1.77267e-17
-1.80662e-17
-2.05495e-17
-1.8256e-17
-1.74026e-17
-1.88481e-17
-1.87579e-17
-1.67798e-17
-1.81638e-17
-1.85756e-17
-1.78432e-17
-1.9025e-17
-1.82521e-17
-1.89967e-17
-1.96914e-17
-1.91693e-17
-1.69348e-17
-1.95214e-17
-1.74947e-17
-1.81804e-17
-1.80109e-17
-1.80616e-17
-1.78952e-17
-1.8713e-17
-1.73001e-17
-1.65335e-17
-1.76415e-17
-1.83746e-17
-1.82102e-17
-1.83926e-17
-1.78e-17
-1.83937e-17
-1.77753e-17
-1.89618e-17
-2.0393e-17
-1.6261e-17
-1.6543e-17
-2.00589e-17
-1.9754e-17
-1.77479e-17
-1.80069e-17
-1.91443e-17
-1.87849e-17
-1.76357e-17
-1.86784e-17
-1.82379e-17
-1.81333e-17
-1.9915e-17
-1.8984e-17
-1.69606e-17
-1.77824e-17
-1.91761e-17
-1.7592e-17
-1.88956e-17
-1.81166e-17
-1.90674e-17
-1.68607e-17
-1.83468e-17
-1.99167e-17
-1.91068e-17
-1.79551e-17
-1.58302e-17
-1.98435e-17
-1.63638e-17
-1.97868e-17
-1.88017e-17
-1.80257e-17
-1.87731e-17
-1.84916e-17
-1.83348e-17
-1.60242e-17
-1.82666e-17
-1.98642e-17
-1.8131e-17
-1.66941e-17
-1.71702e-17
-1.83361e-17
-1.78805e-17
-1.96206e-17
-2.06305e-17
-1.69938e-17
-1.69781e-17
-1.93382e-17
-1.93265e-17
-1.83935e-17
-1.82087e-17
-1.8638e-17
-1.99361e-17
-1.74791e-17
-1.88901e-17
-1.88846e-17
-1.64787e-17
-1.57903e-17
-1.66795e-17
-1.89991e-17
-1.74011e-17
-1.65783e-17
-1.81164e-17
-1.79756e-17
-1.93672e-17
-1.80005e-17
-1.84188e-17
-1.82207e-17
-1.75501e-17
-1.83719e-17
-1.8241e-17
-2.13875e-17
-1.92875e-17
-1.7563e-17
-1.89608e-17
-1.73746e-17
-1.73027e-17
-1.83018e-17
-1.82157e-17
-1.7755e-17
-1.89709e-17
-1.83034e-17
-1.98453e-17
-1.84631e-17
-1.72396e-17
-1.67385e-17
-1.91433e-17
-1.7211e-17
-1.85536e-17
-1.83302e-17
-1.72393e-17
-1.89643e-17
-1.78486e-17
-1.70015e-17
-1.81735e-17
-1.67211e-17
-1.83661e-17
-2.01894e-17
-1.86382e-17
-1.87844e-17
-1.82197e-17
-1.67291e-17
-1.83862e-17
-1.93639e-17
-1.86538e-17
-1.76518e-17
-1.54795e-17
-1.8716e-17
-1.83403e-17
-2.07091e-17
-1.85453e-17
-1.82697e-17
-2.00667e-17
-1.8314e-17
-1.70442e-17
-1.82255e-17
-1.93404e-17
-1.92819e-17
-1.78786e-17
-1.64981e-17
-1.75876e-17
-1.88315e-17
-1.74261e-17
-1.72683e-17
-3.43903e-17
-2.94558e-17
-3.23913e-17
-3.44839e-17
-3.40525e-17
-3.12279e-17
-3.47828e-17
-3.23371e-17
-3.46402e-17
-3.40499e-17
-3.4453e-17
-3.40555e-17
-3.15854e-17
-3.39187e-17
-3.41368e-17
-3.38731e-17
-3.34515e-17
-3.50652e-17
-3.11612e-17
-3.46682e-17
-3.50344e-17
-3.20337e-17
-3.36509e-17
-3.41141e-17
-3.52459e-17
-3.48816e-17
-3.42193e-17
-3.36367e-17
-3.36252e-17
-3.39551e-17
-3.62204e-17
-3.51391e-17
-3.43528e-17
-3.22382e-17
-3.36585e-17
-3.2504e-17
-3.5413e-17
-3.26232e-17
-3.43399e-17
-3.1195e-17
-3.40771e-17
-3.47334e-17
-3.59425e-17
-3.3282e-17
-3.33821e-17
-3.31845e-17
-3.29807e-17
-3.25966e-17
-3.4342e-17
-3.60197e-17
-3.33604e-17
-3.12832e-17
-3.48798e-17
-3.45137e-17
-3.26152e-17
-3.48231e-17
-3.60351e-17
-3.41565e-17
-3.37697e-17
-3.51146e-17
-3.63853e-17
-3.48584e-17
-3.43416e-17
-3.39118e-17
-3.52571e-17
-3.45919e-17
-3.22323e-17
-3.49889e-17
-3.17364e-17
-3.18493e-17
-3.22885e-17
-3.29739e-17
-3.62106e-17
-3.63155e-17
-3.31665e-17
-3.63752e-17
-3.27372e-17
-3.31573e-17
-3.50255e-17
-3.52172e-17
-3.27561e-17
-3.09588e-17
-3.56943e-17
-3.55779e-17
-3.65961e-17
-3.49883e-17
-3.21104e-17
-3.05781e-17
-3.51009e-17
-3.40471e-17
-3.24576e-17
-3.25818e-17
-3.89896e-17
-3.29321e-17
-3.2743e-17
-3.31583e-17
-3.36051e-17
-3.61372e-17
-3.18444e-17
-3.36207e-17
-3.39945e-17
-3.19612e-17
-3.38879e-17
-3.41715e-17
-3.27122e-17
-3.30441e-17
-3.40835e-17
-3.70674e-17
-3.72644e-17
-2.84539e-17
-3.3503e-17
-3.29488e-17
-3.28212e-17
-3.35956e-17
-3.5652e-17
-3.58462e-17
-3.4471e-17
-3.26491e-17
-3.28411e-17
-3.28992e-17
-3.80073e-17
-3.22077e-17
-3.41193e-17
-3.36895e-17
-3.33636e-17
-3.08423e-17
-3.17003e-17
-3.46578e-17
-3.49455e-17
-3.23464e-17
-3.24439e-17
-3.15191e-17
-3.03584e-17
-3.47058e-17
-3.28997e-17
-3.14336e-17
-3.30403e-17
-3.64508e-17
-3.22463e-17
-3.42945e-17
-3.46193e-17
-2.87176e-17
-3.51652e-17
-3.61708e-17
-3.40983e-17
-3.22829e-17
-3.2965e-17
-3.56702e-17
-3.17476e-17
-3.23871e-17
-3.62453e-17
-3.32796e-17
-3.703e-17
-3.18543e-17
-3.56469e-17
-3.66283e-17
-3.66033e-17
-3.41933e-17
-3.36571e-17
-3.24928e-17
-3.0665e-17
-3.50262e-17
-3.45008e-17
-3.28487e-17
-3.49449e-17
-3.25427e-17
-3.56071e-17
-3.42738e-17
-3.3704e-17
-3.462e-17
-3.60633e-17
-2.8554e-17
-3.3882e-17
-3.37149e-17
-3.51698e-17
-3.56503e-17
-3.39305e-17
-3.14458e-17
-3.09771e-17
-3.50162e-17
-3.64307e-17
-3.23255e-17
-3.06764e-17
-3.154e-17
-3.70943e-17
-3.22185e-17
-3.22344e-17
-3.31623e-17
-3.49389e-17
-3.54257e-17
-3.44411e-17
-3.71921e-17
-3.36958e-17
-3.04921e-17
-3.2705e-17
-3.38629e-17
-3.39521e-17
-3.06719e-17
-3.26359e-17
-3.3247e-17
-3.3032e-17
-3.57824e-17
-3.36326e-17
-3.77834e-17
-3.45865e-17
-3.08834e-17
-3.44251e-17
-3.341e-17
-3.43241e-17
-3.34345e-17
-3.3284e-17
-3.46447e-17
-3.45193e-17
-3.44475e-17
-3.72782e-17
-3.24522e-17
-3.73328e-17
-3.29059e-17
-3.64893e-17
-3.34122e-17
-3.30921e-17
-3.4034e-17
-3.44403e-17
-3.60248e-17
-3.55675e-17
-3.13974e-17
-3.36727e-17
-3.37944e-17
-3.2468e-17
-3.31902e-17
-3.5217e-17
-3.469e-17
-3.6273e-17
-3.2283e-17
-3.41983e-17
-3.30884e-17
-3.36601e-17
-3.33226e-17
-3.482e-17
-3.48194e-17
-3.42317e-17
-3.66082e-17
-3.33304e-17
-3.25277e-17
-3.21767e-17
-3.62349e-17
-3.41568e-17
-3.10232e-17
-3.3103e-17
-3.17144e-17
-3.52488e-17
-3.62269e-17
-3.69794e-17
-3.34265e-17
-3.75287e-17
-3.78585e-17
-7.13564e-17
-5.77604e-17
-6.71004e-17
-5.93814e-17
-6.68024e-17
-6.67663e-17
-6.46557e-17
-5.84895e-17
-5.88956e-17
-6.47373e-17
-6.18558e-17
-6.6658e-17
-6.84714e-17
-6.74982e-17
-6.11418e-17
-6.42775e-17
-6.28824e-17
-6.08176e-17
-5.65385e-17
-6.22211e-17
-6.02351e-17
-6.76259e-17
-5.91377e-17
-6.53111e-17
-6.42146e-17
-6.87641e-17
-6.73299e-17
-6.69043e-17
-5.83631e-17
-5.814e-17
-6.24957e-17
-6.29152e-17
-6.3711e-17
-5.6774e-17
-6.58538e-17
-6.71754e-17
-6.64114e-17
-6.69771e-17
-6.34834e-17
-5.99261e-17
-6.16227e-17
-6.19853e-17
-6.61405e-17
-6.0736e-17
-6.53669e-17
-6.7889e-17
-5.98554e-17
-6.03239e-17
-6.47708e-17
-6.63272e-17
-6.22687e-17
-6.32318e-17
-6.48425e-17
-5.93799e-17
-5.97316e-17
-6.16438e-17
-6.62962e-17
-6.63315e-17
-5.93763e-17
-6.38638e-17
-6.47113e-17
-6.53902e-17
-6.11166e-17
-6.77467e-17
-6.89612e-17
-6.63455e-17
-6.39373e-17
-6.03467e-17
-6.11708e-17
-6.92171e-17
-5.92177e-17
-6.2936e-17
-6.40709e-17
-5.7134e-17
-5.98055e-17
-6.59043e-17
-6.54313e-17
-5.93255e-17
-6.47289e-17
-5.97275e-17
-5.97493e-17
-5.60669e-17
-6.25348e-17
-7.3737e-17
-6.12256e-17
-6.15601e-17
-6.56345e-17
-6.55417e-17
-5.97831e-17
-6.10283e-17
-6.81031e-17
-5.81582e-17
-7.01888e-17
-6.36097e-17
-6.43675e-17
-6.07844e-17
-6.40382e-17
-6.82894e-17
-5.72514e-17
-6.1152e-17
-6.51089e-17
-6.10479e-17
-6.55327e-17
-6.57253e-17
-6.30776e-17
-6.53099e-17
-6.69222e-17
-6.58413e-17
-6.44348e-17
-6.02205e-17
-6.13496e-17
-6.57485e-17
-6.01992e-17
-5.792e-17
-6.02287e-17
-6.67745e-17
-6.42979e-17
-6.89668e-17
-6.70845e-17
-5.86541e-17
-6.4896e-17
-6.56858e-17
-6.17344e-17
-6.18291e-17
-6.609e-17
-6.74593e-17
-6.2171e-17
-7.10743e-17
-6.78716e-17
-6.21553e-17
-5.90028e-17
-6.52046e-17
-6.61613e-17
-6.48755e-17
-6.34205e-17
-5.66655e-17
-6.35388e-17
-6.25099e-17
-6.3917e-17
-6.53794e-17
-6.25991e-17
-6.12957e-17
-7.36228e-17
-5.98108e-17
-7.04591e-17
-6.37432e-17
-6.37688e-17
-5.93372e-17
-5.84729e-17
-7.1268e-17
-6.23816e-17
-6.12163e-17
-6.95054e-17
-5.92894e-17
-5.55186e-17
-6.32482e-17
-6.50392e-17
-6.05179e-17
-6.06445e-17
-6.21483e-17
-6.9681e-17
-6.65013e-17
-6.16251e-17
-6.24077e-17
-6.73607e-17
-5.98897e-17
-6.63151e-17
-6.3431e-17
-6.70032e-17
-5.86865e-17
-6.5694e-17
-6.73703e-17
-6.53757e-17
-6.82583e-17
-6.39364e-17
-5.693e-17
-6.25736e-17
-7.16593e-17
-6.27349e-17
-6.01688e-17
-6.20485e-17
-6.42584e-17
-6.02606e-17
-5.90971e-17
-6.09386e-17
-6.34059e-17
-6.33418e-17
-6.45128e-17
-6.61462e-17
-6.54849e-17
-6.85669e-17
-6.00903e-17
-6.00188e-17
-6.75563e-17
-6.72963e-17
-6.50765e-17
-6.89672e-17
-6.11463e-17
-6.44035e-17
-5.94616e-17
-6.15173e-17
-5.95358e-17
-6.06403e-17
-7.03527e-17
-6.02331e-17
-6.13841e-17
-6.48642e-17
-6.53984e-17
-5.85785e-17
-6.13459e-17
-5.88197e-17
-6.43151e-17
-6.41924e-17
-5.97292e-17
-6.40201e-17
-6.20356e-17
-6.56231e-17
-6.41628e-17
-6.48813e-17
-6.16381e-17
-6.21632e-17
-5.8327e-17
-6.33015e-17
-6.4076e-17
-6.36862e-17
-5.89033e-17
-6.66516e-17
-6.57936e-17
-6.24748e-17
-5.51064e-17
-6.2425e-17
-6.26753e-17
-6.58739e-17
-6.25817e-17
-6.56425e-17
-5.79011e-17
-6.76399e-17
-6.56148e-17
-6.23925e-17
-6.24147e-17
-6.06734e-17
-6.21109e-17
-6.83871e-17
-6.1838e-17
-6.16157e-17
-6.50098e-17
-6.07742e-17
-5.98462e-17
-5.85302e-17
-5.4936e-17
-6.60635e-17
-6.72094e-17
-5.48598e-17
-5.87075e-17
-6.58378e-17
-6.28397e-17
-1.18903e-16
-1.15191e-16
-1.18522e-16
-1.15847e-16
-1.29359e-16
-1.17761e-16
-1.21081e-16
-1.11105e-16
-1.04989e-16
-1.24388e-16
-1.22399e-16
-1.14709e-16
-1.20009e-16
-1.18779e-16
-1.19923e-16
-1.1453e-16
-1.24646e-16
-1.22386e-16
-1.15577e-16
-1.24246e-16
-1.14494e-16
-1.24255e-16
-1.20316e-16
-1.18215e-16
-1.15357e-16
-1.22868e-16
-1.19103e-16
-1.24e-16
-1.11207e-16
-1.17659e-16
-1.20933e-16
-1.17706e-16
-1.22513e-16
-1.13069e-16
-1.09378e-16
-1.17506e-16
-1.17269e-16
-1.23456e-16
-1.17817e-16
-1.20375e-16
-1.07767e-16
-1.18847e-16
-1.26761e-16
-1.26824e-16
-1.36707e-16
-1.26503e-16
-1.17716e-16
-1.06724e-16
-1.13691e-16
-1.25523e-16
-1.21241e-16
-1.21331e-16
-1.17203e-16
-1.09849e-16
-1.1378e-16
-1.21647e-16
-1.15898e-16
-1.19827e-16
-1.10784e-16
-1.16233e-16
-1.20366e-16
-1.08945e-16
-1.132e-16
-1.20241e-16
-1.11557e-16
-1.09163e-16
-1.19138e-16
-1.10722e-16
-1.12238e-16
-1.16175e-16
-1.17939e-16
-1.2337e-16
-1.22538e-16
-1.11479e-16
-1.16567e-16
-1.1947e-16
-1.21091e-16
-1.22115e-16
-1.20266e-16
-1.10313e-16
-1.20518e-16
-1.25596e-16
-1.1496e-16
-1.16289e-16
-1.20912e-16
-1.15509e-16
-1.31478e-16
-1.12031e-16
-1.01091e-16
-1.15647e-16
-1.18982e-16
-1.1283e-16
-1.22045e-16
-1.07871e-16
-1.30479e-16
-1.15963e-16
-1.12022e-16
-1.20056e-16
-1.14965e-16
-1.15761e-16
-1.23742e-16
-1.05638e-16
-1.12565e-16
-1.17584e-16
-1.18877e-16
-1.34064e-16
-1.17794e-16
-1.09241e-16
-1.18548e-16
-1.22731e-16
-1.17933e-16
-1.13853e-16
-1.13057e-16
-1.22695e-16
-1.13226e-16
-1.11986e-16
-1.11559e-16
-1.27355e-16
-1.21947e-16
-1.19063e-16
-1.26995e-16
-1.25514e-16
-1.11218e-16
-1.17972e-16
-1.25265e-16
-1.25817e-16
-1.19188e-16
-1.20946e-16
-1.2576e-16
-1.17524e-16
-1.08343e-16
-1.16873e-16
-1.16303e-16
-1.23015e-16
-1.23191e-16
-1.19912e-16
-1.22931e-16
-1.08745e-16
-1.31632e-16
-1.07693e-16
-1.28755e-16
-1.18207e-16
-1.28948e-16
-1.13009e-16
-1.23083e-16
-1.32978e-16
-1.07664e-16
-1.19141e-16
-1.25928e-16
-1.2365e-16
-1.18554e-16
-1.10912e-16
-1.1339e-16
-1.15605e-16
-1.11658e-16
-1.20202e-16
-1.20331e-16
-1.1468e-16
-1.30444e-16
-1.22353e-16
-1.1206e-16
-1.14603e-16
-1.15073e-16
-1.2003e-16
-1.1597e-16
-1.0676e-16
-1.26209e-16
-1.21769e-16
-1.03988e-16
-1.19395e-16
-1.15696e-16
-1.22472e-16
-1.12518e-16
-1.09481e-16
-1.21066e-16
-1.27208e-16
-1.06259e-16
-1.12786e-16
-1.24734e-16
-1.15633e-16
-1.24301e-16
-1.24822e-16
-1.2493e-16
-1.19466e-16
-1.25165e-16
-1.20345e-16
-1.09041e-16
-1.05775e-16
-1.19443e-16
-1.27595e-16
-1.30387e-16
-1.05907e-16
-1.19504e-16
-1.17894e-16
-1.21469e-16
-1.15771e-16
-1.12684e-16
-1.17337e-16
-1.18708e-16
-1.0825e-16
-1.17048e-16
-1.10169e-16
-1.21661e-16
-1.26273e-16
-1.10372e-16
-1.18763e-16
-1.07206e-16
-1.10354e-16
-1.17132e-16
-1.20426e-16
-1.18162e-16
-1.1909e-16
-1.21374e-16
-1.19982e-16
-1.22257e-16
-1.07877e-16
-1.17446e-16
-1.25525e-16
-1.19426e-16
-1.2296e-16
-1.1591e-16
-1.14659e-16
-1.13011e-16
-1.10914e-16
-1.2443e-16
-1.2828e-16
-1.06452e-16
-1.2674e-16
-1.21041e-16
-1.15205e-16
-1.22512e-16
-1.27218e-16
-1.23341e-16
-1.14671e-16
-1.12571e-16
-1.19455e-16
-1.26855e-16
-1.19745e-16
-1.15401e-16
-1.16617e-16
-1.22638e-16
-1.20008e-16
-1.20978e-16
-1.23741e-16
-1.10396e-16
-1.05663e-16
-1.10893e-16
-1.14164e-16
-1.13618e-16
-1.21317e-16
-1.24963e-16
-1.1857e-16
-1.29267e-16
-1.12708e-16
-1.20287e-16
-1.21486e-16
-2.39507e-16
-2.04821e-16
-2.16884e-16
-2.1916e-16
-2.11484e-16
-2.32824e-16
-2.22922e-16
-2.27422e-16
-2.13869e-16
-2.16688e-16
-2.44054e-16
-2.26129e-16
-2.08073e-16
-2.25089e-16
-2.24953e-16
-2.33533e-16
-2.42923e-16
-2.1941e-16
-2.14405e-16
-2.12451e-16
-2.26638e-16
-2.32044e-16
-1.91515e-16
-2.20273e-16
-2.0387e-16
-2.09692e-16
-2.19768e-16
-2.26227e-16
-2.08424e-16
-2.18832e-16
-2.12179e-16
-2.44822e-16
-2.33458e-16
-2.22041e-16
-2.049e-16
-2.25789e-16
-2.19163e-16
-2.25639e-16
-2.16916e-16
-2.22277e-16
-2.31283e-16
-2.3577e-16
-2.18787e-16
-2.21142e-16
-2.04638e-16
-2.1311e-16
-2.27836e-16
-2.28666e-16
-2.20941e-16
-2.16716e-16
-2.05231e-16
-2.3572e-16
-2.14247e-16
-2.28502e-16
-2.23888e-16
-2.29151e-16
-2.2608e-16
-2.39899e-16
-2.19379e-16
-2.09162e-16
-2.23293e-16
-2.15812e-16
-2.02758e-16
-2.26434e-16
-2.13375e-16
-2.09797e-16
-2.19702e-16
-2.29061e-16
-2.15391e-16
-2.27298e-16
-2.38188e-16
-2.409e-16
-2.14639e-16
-2.15222e-16
-2.21969e-16
-2.29143e-16
-2.2538e-16
-2.31841e-16
-2.14874e-16
-2.25476e-16
-2.26951e-16
-2.26584e-16
-2.15306e-16
-2.21362e-16
-2.14698e-16
-2.07095e-16
-2.43438e-16
-2.30909e-16
-2.20921e-16
-2.30581e-16
-2.13532e-16
-2.26712e-16
-2.23351e-16
-2.09945e-16
-2.22122e-16
-2.3312e-16
-2.32391e-16
-2.49954e-16
-2.47928e-16
-1.99373e-16
-2.0996e-16
-2.07917e-16
-2.10812e-16
-2.13783e-16
-2.07977e-16
-2.21894e-16
-2.1822e-16
-2.11918e-16
-2.32134e-16
-2.28276e-16
-2.04073e-16
-2.09272e-16
-2.19874e-16
-2.2649e-16
-2.13549e-16
-2.32111e-16
-2.11716e-16
-2.0552e-16
-2.24374e-16
-2.29771e-16
-2.21398e-16
-1.92475e-16
-2.07762e-16
-2.09695e-16
-2.28185e-16
-2.05524e-16
-2.34764e-16
-2.32068e-16
-2.15067e-16
-2.20776e-16
-2.22173e-16
-2.16955e-16
-2.34516e-16
-2.31334e-16
-2.28159e-16
-2.25305e-16
-2.2067e-16
-2.23751e-16
-2.39548e-16
-2.20765e-16
-2.2824e-16
-2.02236e-16
-2.21458e-16
-2.05338e-16
-2.1368e-16
-2.11044e-16
-2.13447e-16
-2.1434e-16
-2.4726e-16
-2.19147e-16
-1.9272e-16
-2.00272e-16
-2.27373e-16
-2.27932e-16
-2.3676e-16
-2.3682e-16
-2.13211e-16
-2.00209e-16
-2.18813e-16
-2.12321e-16
-2.15144e-16
-2.23355e-16
-2.41624e-16
-2.22989e-16
-2.23827e-16
-2.2423e-16
-2.24086e-16
-2.19355e-16
-2.40438e-16
-2.22584e-16
-2.15219e-16
-2.32962e-16
-2.05453e-16
-2.12141e-16
-2.3312e-16
-2.36387e-16
-2.21443e-16
-2.2285e-16
-2.21774e-16
-2.16256e-16
-2.35065e-16
-2.45791e-16
-1.89798e-16
-2.16702e-16
-2.43846e-16
-2.07702e-16
-2.19048e-16
-2.0021e-16
-2.29638e-16
-2.3013e-16
-2.18771e-16
-2.38849e-16
-2.29986e-16
-1.91301e-16
-2.03759e-16
-2.04095e-16
-2.14733e-16
-2.14002e-16
-2.29608e-16
-2.11572e-16
-2.18982e-16
-2.38974e-16
-2.00074e-16
-2.23763e-16
-2.31847e-16
-2.23179e-16
-2.20855e-16
-2.37477e-16
-2.13715e-16
-2.39206e-16
-2.05342e-16
-2.17482e-16
-2.26308e-16
-2.32491e-16
-2.16259e-16
-2.18484e-16
-2.34415e-16
-2.42102e-16
-2.17722e-16
-2.23267e-16
-2.28876e-16
-2.27591e-16
-2.17551e-16
-2.24709e-16
-2.24874e-16
-2.20337e-16
-2.02132e-16
-2.18681e-16
-2.11186e-16
-2.26156e-16
-2.07099e-16
-2.40033e-16
-2.33143e-16
-2.21412e-16
-2.31594e-16
-2.1899e-16
-1.95332e-16
-2.08541e-16
-2.14733e-16
-2.29592e-16
-2.31492e-16
-2.33074e-16
-2.05574e-16
-2.00925e-16
-2.17287e-16
-2.28331e-16
-2.28741e-16
-2.22849e-16
-2.25268e-16
-2.26278e-16
-2.1957e-16
-2.20831e-16
-2.24578e-16
-2.31753e-16
-2.3145e-16
-2.15838e-16
-4.30696e-16
-4.0291e-16
-4.20513e-16
-4.19601e-16
-4.12828e-16
-4.34223e-16
-3.78484e-16
-4.16544e-16