# vtk DataFile Version 1.0
Electron Density - Current Sheet 
ASCII
DATASET STRUCTURED_POINTS
DIMENSIONS 256 128 1
ORIGIN 0 0 0
SPACING 0.15625 0.15625 1
POINT_DATA 32768
SCALARS rhoe float
LOOKUP_TABLE default
-1.93369e-18
-1.91362e-18
-1.95349e-18
-1.61391e-18
-1.77298e-18
-1.63993e-18
-1.83924e-18
-1.88511e-18
-1.96694e-18
-1.89752e-18
-1.74512e-18
-1.74376e-18
-1.78566e-18
-1.77017e-18
-1.70093e-18
-1.87671e-18
-1.94133e-18
-1.99659e-18
-1.90082e-18
-1.89391e-18
-1.83177e-18
-1.80357e-18
-2.06075e-18
-1.84449e-18
-1.74551e-18
-1.566e-18
-1.72623e-18
-1.83332e-18
-1.55198e-18
-1.90973e-18
-1.90125e-18
-1.88115e-18
-1.87076e-18
-1.86084e-18
-1.96215e-18
-2.02432e-18
-2.08832e-18
-1.82493e-18
-2.05489e-18
-1.6915e-18
-1.70075e-18
-1.89676e-18
-1.97498e-18
-1.91923e-18
-1.96797e-18
-1.70238e-18
-1.57529e-18
-1.86021e-18
-1.91116e-18
-1.6548e-18
-1.86008e-18
-1.85686e-18
-1.93632e-18
-1.72804e-18
-1.9178e-18
-2.20961e-18
-2.09838e-18
-1.96012e-18
-1.90848e-18
-1.91343e-18
-1.71156e-18
-1.81886e-18
-1.87632e-18
-1.8443e-18
-1.76062e-18
-1.66068e-18
-1.84816e-18
-1.92355e-18
-2.27114e-18
-2.05617e-18
-1.92075e-18
-1.98382e-18
-1.64049e-18
-1.65508e-18
-1.68665e-18
-1.81193e-18
-1.91151e-18
-1.72149e-18
-2.03161e-18
-1.83586e-18
-2.00298e-18
-1.80706e-18
-1.90096e-18
-1.69871e-18
-1.77061e-18
-1.78846e-18
-1.7628e-18
-1.88782e-18
-1.84803e-18
-2.07748e-18
-1.8239e-18
-1.74006e-18
-1.9791e-18
-2.06233e-18
-1.71869e-18
-1.68343e-18
-1.90234e-18
-1.89773e-18
-1.55147e-18
-1.75362e-18
-1.77127e-18
-1.56959e-18
-1.74052e-18
-1.91657e-18
-2.01901e-18
-2.12997e-18
-2.1713e-18
-1.88796e-18
-2.01686e-18
-1.72195e-18
-1.54556e-18
-1.82361e-18
-1.89018e-18
-1.81635e-18
-1.86773e-18
-1.98441e-18
-1.65331e-18
-1.75891e-18
-1.61247e-18
-1.7949e-18
-1.77857e-18
-1.97649e-18
-2.18094e-18
-2.06548e-18
-1.8193e-18
-1.88612e-18
-1.87742e-18
-1.77028e-18
-1.40679e-18
-1.81995e-18
-2.07544e-18
-1.87874e-18
-1.76145e-18
-1.72809e-18
-1.79626e-18
-1.78291e-18
-1.6848e-18
-1.90594e-18
-1.84346e-18
-1.84728e-18
-1.86235e-18
-1.73897e-18
-2.11539e-18
-1.59407e-18
-1.69443e-18
-1.74066e-18
-1.80611e-18
-1.98945e-18
-1.76296e-18
-1.61895e-18
-1.793e-18
-1.87323e-18
-2.01178e-18
-2.06129e-18
-2.00113e-18
-1.86328e-18
-1.99652e-18
-2.2165e-18
-2.0082e-18
-1.66876e-18
-1.62109e-18
-1.80366e-18
-2.05883e-18
-1.95102e-18
-1.77884e-18
-1.83203e-18
-1.88122e-18
-2.06394e-18
-1.80387e-18
-1.78465e-18
-1.76849e-18
-2.08399e-18
-1.93315e-18
-1.80204e-18
-1.83266e-18
-1.75921e-18
-1.82618e-18
-1.65228e-18
-1.8885e-18
-2.07586e-18
-1.92993e-18
-2.10757e-18
-1.77909e-18
-1.80513e-18
-1.88641e-18
-1.79084e-18
-1.84226e-18
-1.54534e-18
-2.00581e-18
-1.75078e-18
-1.59782e-18
-1.65451e-18
-1.82748e-18
-1.6942e-18
-1.87855e-18
-1.8762e-18
-1.75943e-18
-1.97503e-18
-1.78433e-18
-1.97608e-18
-1.87155e-18
-1.94856e-18
-1.90006e-18
-1.92474e-18
-1.99041e-18
-2.09865e-18
-1.87064e-18
-1.78452e-18
-1.56536e-18
-1.47966e-18
-1.86039e-18
-1.96561e-18
-1.71842e-18
-1.9003e-18
-1.88857e-18
-1.99099e-18
-2.17672e-18
-2.38633e-18
-1.85611e-18
-1.74614e-18
-1.89562e-18
-1.73431e-18
-2.01188e-18
-2.05958e-18
-1.78237e-18
-1.45958e-18
-1.96475e-18
-1.75626e-18
-1.75841e-18
-1.63389e-18
-1.59542e-18
-1.67894e-18
-1.79957e-18
-1.77756e-18
-1.99105e-18
-1.89057e-18
-1.8796e-18
-1.64944e-18
-1.8899e-18
-2.00026e-18
-1.92935e-18
-1.56644e-18
-1.54651e-18
-2.26351e-18
-1.88145e-18
-1.86311e-18
-2.17159e-18
-1.9343e-18
-1.94275e-18
-1.8197e-18
-1.7631e-18
-1.74827e-18
-1.85493e-18
-1.90664e-18
-2.31347e-18
-1.96334e-18
-2.84871e-18
-2.61362e-18
-2.8568e-18
-2.66751e-18
-2.8847e-18
-2.5184e-18
-2.68681e-18
-2.77872e-18
-3.03228e-18
-3.11663e-18
-2.73273e-18
-2.65169e-18
-3.12735e-18
-2.74219e-18
-2.90143e-18
-2.79094e-18
-2.94053e-18
-2.79699e-18
-2.8043e-18
-2.74459e-18
-2.85218e-18
-2.93978e-18
-2.95645e-18
-2.70039e-18
-2.66112e-18
-2.66406e-18
-2.52478e-18
-2.75078e-18
-2.75732e-18
-3.07479e-18
-3.09929e-18
-2.91554e-18
-2.73122e-18
-2.7442e-18
-2.7838e-18
-2.74251e-18
-2.84969e-18
-2.87184e-18
-2.99946e-18
-2.69779e-18
-2.79424e-18
-2.8784e-18
-2.97215e-18
-2.76725e-18
-2.70065e-18
-2.66965e-18
-2.76014e-18
-2.61521e-18
-2.9623e-18
-2.91718e-18
-2.89255e-18
-2.94174e-18
-2.79079e-18
-2.62881e-18
-2.89606e-18
-2.78155e-18
-2.73901e-18
-2.72362e-18
-3.03522e-18
-2.81957e-18
-2.48682e-18
-2.99521e-18
-3.0919e-18
-2.87401e-18
-2.87517e-18
-2.5845e-18
-2.72161e-18
-2.60905e-18
-3.0115e-18
-3.17928e-18
-2.81129e-18
-2.58026e-18
-2.65094e-18
-2.5212e-18
-2.66611e-18
-2.97102e-18
-2.84735e-18
-2.62036e-18
-3.08632e-18
-2.89562e-18
-2.81554e-18
-2.63079e-18
-3.0575e-18
-3.03292e-18
-3.06238e-18
-2.7304e-18
-2.65676e-18
-3.19822e-18
-2.93502e-18
-2.85056e-18
-2.64791e-18
-2.80285e-18
-2.79845e-18
-2.80544e-18
-2.67434e-18
-2.78317e-18
-2.70176e-18
-2.81612e-18
-2.5912e-18
-2.76786e-18
-2.75371e-18
-2.63316e-18
-2.66379e-18
-3.13403e-18
-2.75807e-18
-2.86054e-18
-2.67117e-18
-3.00879e-18
-3.0343e-18
-2.63432e-18
-2.42263e-18
-2.94517e-18
-2.84637e-18
-2.75598e-18
-3.02316e-18
-2.95968e-18
-2.95941e-18
-2.8012e-18
-2.75326e-18
-2.81026e-18
-3.01583e-18
-3.23655e-18
-2.92623e-18
-3.15283e-18
-3.01065e-18
-2.85066e-18
-2.66815e-18
-2.73469e-18
-2.50662e-18
-2.48146e-18
-2.85253e-18
-3.06584e-18
-2.84171e-18
-2.76091e-18
-2.97817e-18
-3.04834e-18
-3.00898e-18
-2.66203e-18
-2.78793e-18
-2.8243e-18
-2.45168e-18
-2.35178e-18
-3.00169e-18
-2.77828e-18
-2.70587e-18
-2.64344e-18
-2.77574e-18
-3.12484e-18
-2.74123e-18
-2.99229e-18
-2.63434e-18
-2.9825e-18
-2.76271e-18
-2.63268e-18
-2.87112e-18
-3.18247e-18
-2.96278e-18
-3.04886e-18
-2.72208e-18
-2.68454e-18
-2.5473e-18
-3.04546e-18
-3.12333e-18
-2.80049e-18
-2.70821e-18
-2.41688e-18
-2.59787e-18
-2.69153e-18
-2.77158e-18
-2.65154e-18
-2.87744e-18
-2.97893e-18
-2.70543e-18
-2.81767e-18
-2.95485e-18
-3.20096e-18
-2.7786e-18
-2.66071e-18
-2.92209e-18
-2.77297e-18
-2.92419e-18
-2.90656e-18
-2.64411e-18
-2.81881e-18
-2.83394e-18
-2.83858e-18
-2.80406e-18
-2.47726e-18
-2.84538e-18
-2.78504e-18
-2.55273e-18
-2.80945e-18
-2.71731e-18
-2.76067e-18
-3.14332e-18
-2.97382e-18
-2.67281e-18
-2.9041e-18
-2.84921e-18
-2.96525e-18
-2.55837e-18
-2.76934e-18
-3.28667e-18
-3.01752e-18
-2.99479e-18
-2.98057e-18
-2.9557e-18
-2.81733e-18
-2.57504e-18
-2.6872e-18
-3.16373e-18
-2.91331e-18
-2.79163e-18
-2.90521e-18
-2.8067e-18
-2.86954e-18
-2.785e-18
-2.86519e-18
-2.73512e-18
-2.74193e-18
-2.67229e-18
-2.79066e-18
-2.72681e-18
-2.68448e-18
-2.95929e-18
-2.64564e-18
-2.97894e-18
-2.65181e-18
-2.7195e-18
-2.90863e-18
-2.93064e-18
-2.83099e-18
-2.72888e-18
-2.71298e-18
-2.89655e-18
-2.77166e-18
-2.99169e-18
-2.91152e-18
-2.64788e-18
-2.84619e-18
-3.14521e-18
-2.98862e-18
-2.48623e-18
-2.85528e-18
-2.64497e-18
-2.81343e-18
-2.54853e-18
-2.61416e-18
-3.15279e-18
-3.2026e-18
-2.61579e-18
-2.62809e-18
-2.78604e-18
-3.34916e-18
-2.92553e-18
-2.85798e-18
-4.38061e-18
-5.18059e-18
-5.59793e-18
-5.19872e-18
-4.65373e-18
-5.07071e-18
-5.31888e-18
-5.18857e-18
-5.65082e-18
-5.87224e-18
-5.36493e-18
-4.82988e-18
-5.17736e-18
-4.96229e-18
-4.89288e-18
-5.30157e-18
-5.06594e-18
-4.85712e-18
-5.64178e-18
-5.72786e-18
-5.23838e-18
-4.92212e-18
-5.167e-18
-5.39232e-18
-5.29916e-18
-5.46641e-18
-4.85987e-18
-5.18934e-18
-5.37452e-18
-5.00106e-18
-5.71991e-18
-5.50154e-18
-5.12517e-18
-5.1472e-18
-4.93217e-18
-4.86038e-18
-5.47537e-18
-5.16258e-18
-5.01281e-18
-5.11557e-18
-5.41522e-18
-5.53234e-18
-5.22605e-18
-4.34351e-18
-4.9035e-18
-5.06252e-18
-5.21696e-18
-4.98686e-18
-5.39789e-18
-4.87906e-18
-5.27362e-18
-5.52792e-18
-5.96539e-18
-5.33877e-18
-5.08257e-18
-4.70916e-18
-4.86066e-18
-4.90523e-18
-5.08963e-18
-5.6498e-18
-5.06856e-18
-5.50854e-18
-5.04137e-18
-4.89835e-18
-5.46092e-18
-5.35433e-18
-4.99127e-18
-4.57858e-18
-5.25246e-18
-5.8266e-18
-5.29803e-18
-4.76944e-18
-5.12591e-18
-4.96151e-18
-4.5714e-18
-5.32657e-18
-5.44674e-18
-5.51124e-18
-5.8287e-18
-5.48058e-18
-5.19437e-18
-5.23232e-18
-5.08854e-18
-5.43642e-18
-5.56293e-18
-4.83723e-18
-4.56652e-18
-5.26025e-18
-5.62285e-18
-5.57133e-18
-5.31511e-18
-4.87679e-18
-4.8802e-18
-5.5772e-18
-5.02194e-18
-5.07586e-18
-4.7572e-18
-5.03861e-18
-5.1155e-18
-5.17378e-18
-5.16308e-18
-5.17921e-18
-4.94025e-18
-5.20727e-18
-5.42223e-18
-5.19183e-18
-5.38347e-18
-5.38588e-18
-5.15154e-18
-5.01566e-18
-5.07851e-18
-5.54344e-18
-4.96795e-18
-5.40764e-18
-5.62063e-18
-4.88239e-18
-4.58934e-18
-5.53182e-18
-5.11014e-18
-5.38281e-18
-5.52577e-18
-5.86065e-18
-4.96018e-18
-5.35745e-18
-5.40919e-18
-5.49557e-18
-5.23857e-18
-5.2636e-18
-4.49566e-18
-5.1729e-18
-5.55275e-18
-5.21959e-18
-4.80677e-18
-5.46564e-18
-5.13122e-18
-4.95425e-18
-5.29487e-18
-5.13523e-18
-5.04161e-18
-5.19382e-18
-5.12527e-18
-5.42135e-18
-6.01847e-18
-5.17304e-18
-4.57053e-18
-5.26849e-18
-5.57502e-18
-4.77114e-18
-4.40536e-18
-4.84087e-18
-5.20844e-18
-5.67219e-18
-5.3452e-18
-5.00357e-18
-4.80719e-18
-5.74204e-18
-5.36694e-18
-5.09382e-18
-5.17639e-18
-5.09175e-18
-5.10592e-18
-5.29047e-18
-5.56855e-18
-5.00259e-18
-4.55213e-18
-5.33619e-18
-5.29968e-18
-5.29275e-18
-4.49015e-18
-5.10141e-18
-5.58165e-18
-5.26678e-18
-5.58344e-18
-5.10888e-18
-5.31409e-18
-5.02731e-18
-5.07398e-18
-5.99988e-18
-5.15449e-18
-4.78878e-18
-5.15031e-18
-5.49474e-18
-5.08161e-18
-5.39329e-18
-5.40122e-18
-5.09273e-18
-4.61906e-18
-4.83733e-18
-4.96444e-18
-5.36623e-18
-5.58176e-18
-5.32374e-18
-5.01852e-18
-5.59337e-18
-5.78889e-18
-5.35169e-18
-4.90808e-18
-5.06996e-18
-5.13902e-18
-4.83193e-18
-5.10047e-18
-5.24903e-18
-5.22563e-18
-5.48885e-18
-5.00519e-18
-5.24686e-18
-5.35239e-18
-5.09092e-18
-5.15499e-18
-5.55602e-18
-5.33194e-18
-4.9573e-18
-5.27121e-18
-5.11309e-18
-5.23521e-18
-5.4902e-18
-4.96371e-18
-4.98322e-18
-4.34137e-18
-4.93332e-18
-4.87879e-18
-5.01677e-18
-5.19451e-18
-5.13549e-18
-5.26126e-18
-5.56477e-18
-5.18066e-18
-5.64337e-18
-5.78867e-18
-5.75758e-18
-5.35877e-18
-5.19952e-18
-5.02369e-18
-4.99806e-18
-5.42867e-18
-5.02633e-18
-5.11185e-18
-5.02743e-18
-4.99504e-18
-5.38319e-18
-5.56296e-18
-5.74681e-18
-5.13992e-18
-4.90685e-18
-5.25087e-18
-4.84822e-18
-4.92149e-18
-4.69782e-18
-5.22228e-18
-5.70833e-18
-5.21791e-18
-5.14499e-18
-6.10368e-18
-5.32576e-18
-4.93044e-18
-5.06505e-18
-9.19501e-18
-9.24879e-18
-9.36493e-18
-1.11987e-17
-9.41541e-18
-9.20867e-18
-8.88138e-18
-9.66279e-18
-1.08523e-17
-1.08289e-17
-9.68318e-18
-8.83154e-18
-9.59063e-18
-9.35784e-18
-9.82191e-18
-9.69245e-18
-1.01595e-17
-1.03596e-17
-9.95767e-18
-1.02683e-17
-1.00036e-17
-9.08348e-18
-9.67837e-18
-8.92622e-18
-9.94028e-18
-1.04039e-17
-9.58969e-18
-9.36998e-18
-9.91764e-18
-9.32454e-18
-9.86534e-18
-9.85152e-18
-9.90102e-18
-1.00831e-17
-9.58131e-18
-8.4624e-18
-9.4327e-18
-8.64299e-18
-9.7611e-18
-9.82296e-18
-9.80707e-18
-1.03298e-17
-1.00477e-17
-1.02958e-17
-1.01474e-17
-9.61302e-18
-9.98324e-18
-9.80287e-18
-9.83458e-18
-1.00301e-17
-9.06031e-18
-9.18672e-18
-9.61291e-18
-1.00623e-17
-9.37702e-18
-9.80133e-18
-9.16696e-18
-9.20743e-18
-8.98242e-18
-9.44244e-18
-9.16953e-18
-9.37789e-18
-9.40148e-18
-9.53974e-18
-1.0528e-17
-9.47245e-18
-9.64186e-18
-9.82557e-18
-9.91101e-18
-1.04818e-17
-9.13698e-18
-9.21379e-18
-1.09257e-17
-9.72985e-18
-9.55711e-18
-9.63987e-18
-8.54866e-18
-1.01452e-17
-1.06065e-17
-9.11343e-18
-1.00375e-17
-9.25772e-18
-1.01128e-17
-1.01324e-17
-1.07121e-17
-9.56278e-18
-9.35283e-18
-1.00682e-17
-1.02682e-17
-9.9782e-18
-1.03704e-17
-9.61609e-18
-8.0216e-18
-9.39977e-18
-9.12144e-18
-9.58815e-18
-9.1944e-18
-1.0478e-17
-1.01141e-17
-1.0268e-17
-9.39022e-18
-8.45407e-18
-9.46503e-18
-9.60314e-18
-9.68801e-18
-9.59623e-18
-1.0659e-17
-9.82793e-18
-1.00846e-17
-1.04302e-17
-9.30966e-18
-1.03106e-17
-8.86259e-18
-9.16628e-18
-1.01174e-17
-1.02831e-17
-9.60899e-18
-1.01242e-17
-9.83222e-18
-9.524e-18
-9.48319e-18
-1.02872e-17
-9.48774e-18
-9.61951e-18
-9.20781e-18
-9.1405e-18
-1.00297e-17
-1.01989e-17
-8.72278e-18
-1.03433e-17
-9.86602e-18
-9.63337e-18
-9.70239e-18
-9.80141e-18
-9.57159e-18
-1.00535e-17
-9.40836e-18
-9.35096e-18
-1.02374e-17
-1.09491e-17
-1.02881e-17
-9.29717e-18
-9.64916e-18
-9.55935e-18
-8.0808e-18
-8.58727e-18
-9.83406e-18
-9.66351e-18
-8.42097e-18
-1.00824e-17
-1.04319e-17
-1.00868e-17
-1.00648e-17
-9.24409e-18
-9.54118e-18
-9.6946e-18
-9.02829e-18
-9.49313e-18
-1.02754e-17
-9.20973e-18
-1.01544e-17
-1.02819e-17
-9.87325e-18
-9.88292e-18
-1.03838e-17
-9.71629e-18
-9.32508e-18
-1.00476e-17
-9.44119e-18
-9.54072e-18
-9.70015e-18
-1.05447e-17
-1.04828e-17
-1.00023e-17
-1.02815e-17
-9.20318e-18
-9.18245e-18
-9.39695e-18
-9.43566e-18
-9.48519e-18
-9.86375e-18
-9.65679e-18
-1.03611e-17
-9.87161e-18
-9.72137e-18
-1.04724e-17
-9.39608e-18
-9.08012e-18
-9.3433e-18
-8.73103e-18
-9.74424e-18
-1.01376e-17
-9.39413e-18
-9.73927e-18
-9.9658e-18
-1.02775e-17
-1.02179e-17
-9.75253e-18
-9.80379e-18
-1.01764e-17
-9.50027e-18
-1.04985e-17
-9.69327e-18
-9.28666e-18
-8.34844e-18
-8.88129e-18
-1.03294e-17
-1.04376e-17
-9.88453e-18
-9.41319e-18
-9.70249e-18
-9.28313e-18
-1.02021e-17
-8.90802e-18
-9.73661e-18
-1.01415e-17
-8.99696e-18
-9.23458e-18
-9.63965e-18
-9.94069e-18
-9.07683e-18
-9.7791e-18
-1.06293e-17
-1.04029e-17
-1.0107e-17
-9.81116e-18
-9.48532e-18
-9.88709e-18
-1.05681e-17
-9.57356e-18
-9.4345e-18
-1.08825e-17
-9.58454e-18
-1.06801e-17
-9.46822e-18
-9.16978e-18
-9.15887e-18
-9.45662e-18
-9.34634e-18
-8.80834e-18
-9.63313e-18
-1.00052e-17
-1.05672e-17
-9.82762e-18
-9.03848e-18
-9.82441e-18
-9.32122e-18
-9.97778e-18
-1.00973e-17
-9.21092e-18
-1.00336e-17
-9.36428e-18
-8.90738e-18
-1.01054e-17
-1.02423e-17
-9.11571e-18
-1.94473e-17
-1.70164e-17
-1.75103e-17
-1.89932e-17
-1.74957e-17
-1.93899e-17
-1.98004e-17
-1.92759e-17
-1.78358e-17
-1.74075e-17
-1.75441e-17
-1.71983e-17
-1.59581e-17
-1.67454e-17
-1.79987e-17
-1.62517e-17
-1.80637e-17
-1.94941e-17
-1.9762e-17
-1.86451e-17
-1.83126e-17
-1.92524e-17
-1.96255e-17
-1.75633e-17
-1.66408e-17
-1.74757e-17
-2.0103e-17
-1.92175e-17
-1.89605e-17
-1.99733e-17
-1.77696e-17
-1.72374e-17
-1.70924e-17
-1.93908e-17
-1.67456e-17
-1.63074e-17
-1.67148e-17
-1.76387e-17
-1.76482e-17
-1.86861e-17
-1.76073e-17
-1.90992e-17
-1.71316e-17
-1.76168e-17
-1.85404e-17
-1.7441e-17
-1.74472e-17
-1.91822e-17
-1.84058e-17
-1.85921e-17
-1.80598e-17
-1.81578e-17
-1.85853e-17
-1.90343e-17
-1.82716e-17
-1.73725e-17
-1.84046e-17
-1.76721e-17
-1.78968e-17
-1.66026e-17
-1.66779e-17
-1.83375e-17
-1.88623e-17
-1.94347e-17
-1.8525e-17
-1.82396e-17
-1.69179e-17
-1.79025e-17
-1.91928e-17
-1.81559e-17
-1.86078e-17
-1.73656e-17
-1.77955e-17
-1.74675e-17
-1.84795e-17
-1.89744e-17
-1.75541e-17
-1.79242e-17
-1.88849e-17
-1.58776e-17
-1.8363e-17
-2.01322e-17
-1.86725e-17
-1.92083e-17
-1.92284e-17
-1.91771e-17
-1.87702e-17
-1.67906e-17
-1.76166e-17
-1.87766e-17
-2.00885e-17
-1.89634e-17
-1.78417e-17
-1.87398e-17
-1.79792e-17
-1.66784e-17
-1.60226e-17
-1.67173e-17
-1.74358e-17
-1.76328e-17
-1.74213e-17
-1.82777e-17
-1.76921e-17
-1.89777e-17
-1.95143e-17
-1.97502e-17
-2.1881e-17
-1.88102e-17
-1.73057e-17
-1.83454e-17
-1.62873e-17
-1.74108e-17
-1.81729e-17
-1.66471e-17
-1.67938e-17
-1.80344e-17
-1.75956e-17
-1.85706e-17
-1.99474e-17
-1.66631e-17
-1.84887e-17
-2.14619e-17
-1.84268e-17
-1.64942e-17
-1.64542e-17
-1.64401e-17
-1.82119e-17
-1.78899e-17
-1.91881e-17
-1.93483e-17
-2.06854e-17
-1.85983e-17
-1.64509e-17
-1.72572e-17
-1.59205e-17
-1.69286e-17
-1.94608e-17
-1.7454e-17
-1.83902e-17
-1.88338e-17
-1.83037e-17
-1.9622e-17
-1.96535e-17
-1.72557e-17
-1.51042e-17
-1.90227e-17
-1.8402e-17
-1.61342e-17
-1.63445e-17
-1.61048e-17
-1.91574e-17
-2.05944e-17
-1.86718e-17
-1.75075e-17
-1.6207e-17
-1.58166e-17
-1.62835e-17
-1.81675e-17
-1.81335e-17
-1.92541e-17
-1.99613e-17
-1.91537e-17
-1.64696e-17
-1.95049e-17
-1.75994e-17
-1.70862e-17
-1.84795e-17
-1.99414e-17
-1.87271e-17
-1.87445e-17
-1.90133e-17
-1.88975e-17
-1.79672e-17
-1.86991e-17
-2.0111e-17
-1.81491e-17
-1.61403e-17
-1.92059e-17
-1.9465e-17
-1.67855e-17
-1.74956e-17
-1.67979e-17
-1.77907e-17
-1.93411e-17
-1.85154e-17
-1.8877e-17
-1.67545e-17
-1.73241e-17
-1.7562e-17
-1.6163e-17
-1.98457e-17
-1.91785e-17
-1.95815e-17
-1.84523e-17
-1.75433e-17
-1.89894e-17
-1.6794e-17
-1.63062e-17
-1.94987e-17
-1.7206e-17
-1.56967e-17
-1.92216e-17
-1.89752e-17
-2.0877e-17
-1.82422e-17
-1.87361e-17
-1.9655e-17
-1.84221e-17
-1.76784e-17
-1.79857e-17
-1.68413e-17
-1.80096e-17
-1.92883e-17
-1.77333e-17
-1.91119e-17
-1.88606e-17
-1.74493e-17
-1.72279e-17
-1.69791e-17
-1.88834e-17
-1.86259e-17
-1.64201e-17
-1.72876e-17
-1.74156e-17
-1.77743e-17
-1.82078e-17
-1.92688e-17
-1.85227e-17
-1.78917e-17
-1.91469e-17
-1.92493e-17
-1.87493e-17
-1.92338e-17
-1.77667e-17
-1.8414e-17
-1.83231e-17
-1.75908e-17
-1.77365e-17
-1.78137e-17
-1.67658e-17
-1.86254e-17
-1.64572e-17
-1.86325e-17
-1.93896e-17
-1.69355e-17
-1.82416e-17
-1.71552e-17
-1.89413e-17
-1.83955e-17
-1.78813e-17
-1.87092e-17
-1.71055e-17
-1.8364e-17
-1.75357e-17
-1.91845e-17
-1.85434e-17
-3.60906e-17
-3.27721e-17
-3.23957e-17
-3.53849e-17
-3.32666e-17
-3.54682e-17
-3.6546e-17
-3.63435e-17
-3.09803e-17
-3.36302e-17
-3.40839e-17
-3.19921e-17
-3.275e-17
-3.05711e-17
-3.29466e-17
-3.08388e-17
-3.71964e-17
-3.4972e-17
-3.53661e-17
-3.601e-17
-3.59452e-17
-3.22886e-17
-3.65691e-17
-3.39623e-17
-2.99394e-17
-2.9403e-17
-3.38077e-17
-3.45509e-17
-3.65156e-17
-3.7708e-17
-3.41909e-17
-3.16287e-17
-3.46329e-17
-3.61267e-17
-3.4859e-17
-3.54214e-17
-3.25934e-17
-3.26778e-17
-3.41115e-17
-3.30671e-17
-3.40707e-17
-3.22622e-17
-3.28103e-17
-3.13195e-17
-3.44656e-17
-3.21941e-17
-3.7549e-17
-3.5046e-17
-3.07935e-17
-3.36245e-17
-3.30183e-17
-3.2894e-17
-3.49961e-17
-3.16868e-17
-3.23719e-17
-3.33151e-17
-3.71661e-17
-3.24569e-17
-3.31581e-17
-3.20858e-17
-3.12334e-17
-3.19579e-17
-3.73429e-17
-3.6579e-17
-3.60628e-17
-3.46124e-17
-3.41424e-17
-3.15126e-17
-3.50295e-17
-3.11761e-17
-3.36166e-17
-3.40277e-17
-3.65217e-17
-3.13069e-17
-3.18503e-17
-3.505e-17
-3.47031e-17
-3.50545e-17
-3.84474e-17
-3.72156e-17
-3.32198e-17
-3.26319e-17
-3.37267e-17
-3.47624e-17
-3.4743e-17
-3.47441e-17
-3.40669e-17
-3.2241e-17
-3.29201e-17
-3.41204e-17
-3.66474e-17
-3.69745e-17
-3.53144e-17
-3.46622e-17
-3.22959e-17
-3.24213e-17
-3.19577e-17
-3.17729e-17
-3.3721e-17
-3.30623e-17
-3.13171e-17
-3.55712e-17
-3.12912e-17
-3.49619e-17
-3.36928e-17
-3.32362e-17
-3.45e-17
-3.66297e-17
-3.70482e-17
-3.3451e-17
-3.29025e-17
-3.2656e-17
-3.35209e-17
-3.33233e-17
-3.5382e-17
-3.51229e-17
-3.414e-17
-3.12124e-17
-3.33642e-17
-3.40156e-17
-3.00816e-17
-2.98309e-17
-3.38786e-17
-3.29153e-17
-3.49881e-17
-3.87059e-17
-3.72029e-17
-3.55949e-17
-3.30391e-17
-3.29159e-17
-3.68273e-17
-3.2787e-17
-3.44022e-17
-3.11584e-17
-3.24017e-17
-3.22084e-17
-2.98072e-17
-3.26499e-17
-3.28266e-17
-3.63288e-17
-3.4116e-17
-3.56585e-17
-3.3519e-17
-3.1883e-17
-3.42609e-17
-3.53299e-17
-3.52666e-17
-3.18292e-17
-3.46903e-17
-3.30571e-17
-3.34836e-17
-3.72454e-17
-3.32498e-17
-3.25986e-17
-3.46406e-17
-3.45018e-17
-3.1238e-17
-3.2647e-17
-3.58002e-17
-3.5464e-17
-3.22269e-17
-3.33742e-17
-3.108e-17
-3.39449e-17
-3.38704e-17
-3.31762e-17
-3.39003e-17
-3.38736e-17
-3.34701e-17
-3.47567e-17
-3.50674e-17
-3.40382e-17
-3.33636e-17
-3.54331e-17
-3.67945e-17
-3.38588e-17
-3.51757e-17
-3.41004e-17
-3.49748e-17
-3.26104e-17
-3.32977e-17
-3.39048e-17
-3.34026e-17
-3.26658e-17
-3.14527e-17
-3.31808e-17
-3.40157e-17
-3.79775e-17
-3.5198e-17
-3.042e-17
-3.6016e-17
-3.54633e-17
-3.7047e-17
-3.57238e-17
-3.16712e-17
-3.45503e-17
-3.33182e-17
-3.03069e-17
-3.59428e-17
-3.76733e-17
-3.16441e-17
-3.28075e-17
-3.32985e-17
-3.56316e-17
-3.55022e-17
-3.13644e-17
-3.00866e-17
-3.16758e-17
-3.43756e-17
-3.39929e-17
-3.35935e-17
-3.22575e-17
-3.36824e-17
-3.45368e-17
-3.75518e-17
-3.52125e-17
-3.38702e-17
-3.63387e-17
-3.52189e-17
-3.6048e-17
-3.53505e-17
-3.33492e-17
-3.08607e-17
-2.97851e-17
-3.40644e-17
-3.50111e-17
-3.76192e-17
-3.44897e-17
-3.2533e-17
-3.08902e-17
-3.06277e-17
-3.2746e-17
-3.27613e-17
-3.24718e-17
-3.74679e-17
-3.12971e-17
-2.96131e-17
-3.50594e-17
-3.50057e-17
-4.07108e-17
-3.33468e-17
-3.23901e-17
-3.59467e-17
-3.35297e-17
-3.58869e-17
-3.2854e-17
-3.11522e-17
-3.1545e-17
-3.4478e-17
-3.49033e-17
-3.38876e-17
-3.20608e-17
-3.64369e-17
-3.13089e-17
-3.64998e-17
-3.74322e-17
-6.2228e-17
-6.35931e-17
-6.0453e-17
-6.23062e-17
-6.10191e-17
-5.63497e-17
-6.25302e-17
-6.15927e-17
-6.8602e-17
-6.75817e-17
-5.95395e-17
-6.25963e-17
-6.28828e-17
-5.80883e-17
-6.6341e-17
-6.19993e-17
-6.90084e-17
-6.05845e-17
-6.49085e-17
-6.31219e-17
-6.75137e-17
-6.74318e-17
-6.69021e-17
-6.25992e-17
-6.46016e-17
-6.02893e-17
-6.31411e-17
-5.79726e-17
-6.3694e-17
-6.4825e-17
-7.06028e-17
-6.2755e-17
-6.09737e-17
-5.76624e-17
-6.21232e-17
-6.72801e-17
-6.27269e-17
-5.864e-17
-6.27933e-17
-6.75549e-17
-6.44873e-17
-5.79546e-17
-6.21714e-17
-6.76851e-17
-6.68038e-17
-6.65777e-17
-6.0236e-17
-6.00716e-17
-6.16016e-17
-6.09778e-17
-6.37108e-17
-6.71849e-17
-6.11956e-17
-6.21995e-17
-6.31501e-17
-6.92974e-17
-6.89539e-17
-6.54051e-17
-6.07544e-17
-6.06682e-17
-5.82323e-17
-6.43371e-17
-6.24871e-17
-6.43098e-17
-6.29245e-17
-6.44025e-17
-6.12157e-17
-6.03183e-17
-6.30199e-17
-6.68607e-17
-6.61595e-17
-6.31757e-17
-7.29585e-17
-6.32891e-17
-6.20698e-17
-6.25508e-17
-6.38582e-17
-5.97021e-17
-6.22149e-17
-5.73214e-17
-6.10017e-17
-7.05821e-17
-6.14692e-17
-6.17612e-17
-5.68925e-17
-6.31239e-17
-6.53383e-17
-5.77978e-17
-6.38086e-17
-6.43289e-17
-6.073e-17
-6.92512e-17
-6.9082e-17
-6.76611e-17
-5.66351e-17
-6.24677e-17
-6.40402e-17
-6.60458e-17
-6.56224e-17
-6.45709e-17
-5.92415e-17
-6.22483e-17
-6.47935e-17
-6.30739e-17
-6.04449e-17
-6.25016e-17
-6.7473e-17
-6.23752e-17
-6.0697e-17
-6.12265e-17
-6.20876e-17
-6.24033e-17
-6.10063e-17
-6.43219e-17
-6.11498e-17
-6.35227e-17
-6.30387e-17
-6.67705e-17
-6.32083e-17
-6.31251e-17
-5.81856e-17
-6.08574e-17
-7.07512e-17
-6.63679e-17
-6.11246e-17
-7.31536e-17
-7.06622e-17
-6.36999e-17
-6.13498e-17
-6.62981e-17
-5.93609e-17
-6.54335e-17
-6.23869e-17
-6.14278e-17
-5.80672e-17
-6.18746e-17
-6.40927e-17
-6.4078e-17
-5.53712e-17
-6.48902e-17
-6.45532e-17
-5.76089e-17
-5.44182e-17
-6.28938e-17
-6.47936e-17
-6.55752e-17
-6.74952e-17
-5.77058e-17
-6.73484e-17
-6.66047e-17
-6.65803e-17
-6.30706e-17
-7.02165e-17
-6.22852e-17
-6.10934e-17
-6.73311e-17
-5.96584e-17
-6.18486e-17
-6.55299e-17
-6.67173e-17
-6.65347e-17
-6.31095e-17
-5.75216e-17
-5.67577e-17
-6.4515e-17
-6.30658e-17
-6.50195e-17
-5.87031e-17
-6.87545e-17
-7.02882e-17
-6.21034e-17
-5.95942e-17
-6.18027e-17
-6.17119e-17
-6.59158e-17
-6.70354e-17
-6.10049e-17
-6.48984e-17
-6.28639e-17
-6.17051e-17
-6.64243e-17
-6.1794e-17
-6.52699e-17
-6.55632e-17
-6.43728e-17
-6.20796e-17
-5.91926e-17
-6.20855e-17
-6.69518e-17
-6.31679e-17
-6.12765e-17
-7.03837e-17
-6.31699e-17
-6.00813e-17
-6.37711e-17
-6.48328e-17
-6.41672e-17
-5.50973e-17
-6.09533e-17
-6.47436e-17
-6.35434e-17
-6.25231e-17
-5.94833e-17
-6.20892e-17
-6.49683e-17
-6.43295e-17
-6.85309e-17
-6.55214e-17
-6.03249e-17
-5.37959e-17
-6.13492e-17
-6.37292e-17
-6.82567e-17
-6.03673e-17
-6.61084e-17
-6.09719e-17
-7.06145e-17
-6.50454e-17
-6.48449e-17
-6.57936e-17
-6.0994e-17
-7.12476e-17
-6.17123e-17
-6.51839e-17
-5.86661e-17
-6.20452e-17
-6.7012e-17
-5.98058e-17
-6.06278e-17
-5.58783e-17
-6.2729e-17
-6.54468e-17
-6.82653e-17
-7.00042e-17
-6.17817e-17
-5.99445e-17
-6.43256e-17
-6.45986e-17
-6.15909e-17
-6.44541e-17
-6.53418e-17
-6.13788e-17
-6.50652e-17
-6.09708e-17
-6.20764e-17
-5.82352e-17
-5.86899e-17
-6.15276e-17
-6.24809e-17
-6.36731e-17
-6.4523e-17
-6.66719e-17
-6.14203e-17
-6.42838e-17
-6.21347e-17
-6.93786e-17
-1.29292e-16
-1.15114e-16
-1.20566e-16
-1.17354e-16
-1.3131e-16
-1.15923e-16
-1.22118e-16
-1.09344e-16
-1.1826e-16
-1.15747e-16
-1.28654e-16
-1.23394e-16
-1.07979e-16
-1.05887e-16
-1.15913e-16
-1.13851e-16
-1.26421e-16
-1.22869e-16
-1.18628e-16
-1.121e-16
-1.22741e-16
-1.23886e-16
-1.16947e-16
-1.13452e-16
-1.32627e-16
-1.15638e-16
-1.31304e-16
-1.099e-16
-1.1119e-16
-1.09854e-16
-1.10752e-16
-1.09316e-16
-1.15227e-16
-1.12384e-16
-1.19255e-16
-1.27935e-16
-1.15921e-16
-1.17625e-16
-1.18312e-16
-1.15462e-16
-1.23134e-16
-1.31217e-16
-1.27385e-16
-1.10927e-16
-1.06129e-16
-1.18542e-16
-1.16414e-16
-1.14776e-16
-1.14286e-16
-1.26511e-16
-1.09317e-16
-1.22266e-16
-1.27301e-16
-1.21656e-16
-1.18585e-16
-1.29919e-16
-1.3193e-16
-1.24791e-16
-1.07344e-16
-1.10599e-16
-1.14289e-16
-1.08346e-16
-1.0567e-16
-1.08441e-16
-1.20239e-16
-1.34537e-16
-1.1654e-16
-1.0786e-16
-1.13522e-16
-1.21454e-16
-1.18529e-16
-1.26126e-16
-1.24387e-16
-1.20367e-16
-1.26406e-16
-1.16068e-16
-1.13137e-16
-1.15734e-16
-1.20327e-16
-1.16315e-16
-1.19146e-16
-1.24568e-16
-1.1804e-16
-1.11368e-16
-1.16937e-16
-1.16605e-16
-1.2481e-16
-1.25516e-16
-1.12885e-16
-1.25589e-16
-1.14139e-16
-1.16029e-16
-1.26733e-16
-1.20009e-16
-1.04901e-16
-1.12234e-16
-1.12813e-16
-1.1606e-16
-1.1063e-16
-1.14831e-16
-1.31766e-16
-1.16907e-16
-1.11538e-16
-1.12105e-16
-1.10648e-16
-1.02485e-16
-1.3842e-16
-1.26167e-16
-1.24166e-16
-1.14536e-16
-1.29606e-16
-1.2998e-16
-1.24061e-16
-1.13571e-16
-1.08497e-16
-1.13339e-16
-1.29216e-16
-1.15964e-16
-1.13123e-16
-1.12945e-16
-1.11915e-16
-1.23184e-16
-1.31648e-16
-1.16616e-16
-1.10899e-16
-1.09405e-16
-1.35236e-16
-1.16801e-16
-1.1299e-16
-1.17845e-16
-1.31473e-16
-1.3052e-16
-1.15342e-16
-1.20956e-16
-1.04972e-16
-1.02963e-16
-1.13566e-16
-1.26755e-16
-1.08078e-16
-1.20432e-16
-1.15639e-16
-1.17412e-16
-1.09068e-16
-1.27676e-16
-1.20504e-16
-1.22077e-16
-1.19241e-16
-1.14677e-16
-1.21752e-16
-1.27173e-16
-1.25867e-16
-1.15794e-16
-1.07754e-16
-1.16009e-16
-1.17997e-16
-1.19731e-16
-1.0939e-16
-1.1814e-16
-1.30907e-16
-1.29926e-16
-1.23102e-16
-1.06561e-16
-1.13177e-16
-1.17921e-16
-1.22441e-16
-1.21339e-16
-1.30491e-16
-1.12191e-16
-1.20568e-16
-1.11684e-16
-1.04989e-16
-1.16658e-16
-1.29907e-16
-1.22554e-16
-1.24122e-16
-1.12862e-16
-1.07207e-16
-1.16751e-16
-1.11137e-16
-1.29149e-16
-1.30463e-16
-1.29349e-16
-1.2077e-16
-1.04132e-16
-1.14275e-16
-1.13252e-16
-1.17129e-16
-1.16196e-16
-1.16171e-16
-1.2255e-16
-1.22377e-16
-1.31946e-16
-1.3287e-16
-1.1873e-16
-1.08306e-16
-9.90827e-17
-1.13531e-16
-1.17151e-16
-1.16046e-16
-1.09503e-16
-1.08856e-16
-1.20194e-16
-1.3033e-16
-1.07452e-16
-1.15975e-16
-1.19478e-16
-1.09399e-16
-1.29306e-16
-1.32989e-16
-1.06774e-16
-1.23442e-16
-1.13732e-16
-1.23434e-16
-1.19571e-16
-1.23486e-16
-1.15199e-16
-1.21325e-16
-1.22325e-16
-1.27147e-16
-1.17981e-16
-1.1932e-16
-1.21054e-16
-1.22222e-16
-1.15837e-16
-1.15757e-16
-1.1755e-16
-1.12414e-16
-1.12521e-16
-1.27454e-16
-1.17856e-16
-1.15424e-16
-1.19656e-16
-1.20209e-16
-1.34929e-16
-1.20301e-16
-1.21257e-16
-1.14528e-16
-1.13454e-16
-1.20476e-16
-1.14573e-16
-1.18067e-16
-1.11077e-16
-1.04243e-16
-1.10889e-16
-1.33177e-16
-1.20699e-16
-1.18237e-16
-1.10999e-16
-1.12879e-16
-1.36908e-16
-1.25446e-16
-1.11453e-16
-1.02999e-16
-1.16871e-16
-1.24631e-16
-1.143e-16
-2.15647e-16
-2.13907e-16
-1.92422e-16
-2.43084e-16
-2.47636e-16
-2.27952e-16
-2.1854e-16
-2.13066e-16
-2.29636e-16
-2.23601e-16
-2.38425e-16
-2.22497e-16
-2.08669e-16
-2.34426e-16
-2.21693e-16
-2.29449e-16
-2.25938e-16
-2.28681e-16
-2.22838e-16
-2.18875e-16
-1.90622e-16
-2.17659e-16
-2.14871e-16
-2.32143e-16
-2.22388e-16
-2.16643e-16
-2.1636e-16
-1.95496e-16
-2.07401e-16
-2.44838e-16
-2.15236e-16
-2.13959e-16
-1.94499e-16
-1.99081e-16
-2.1965e-16
-2.39836e-16
-2.09729e-16
-2.16757e-16
-2.25403e-16
-2.27091e-16
-2.41608e-16
-2.36244e-16
-2.35769e-16
-2.19883e-16
-2.15756e-16
-2.41247e-16
-2.284e-16
-1.99825e-16
-2.06277e-16
-2.38313e-16
-2.1284e-16
-2.38756e-16
-2.21915e-16
-2.38893e-16
-2.24352e-16
-2.11805e-16
-2.3088e-16
-2.31976e-16
-2.18395e-16
-2.13947e-16
-2.18844e-16
-2.10244e-16
-2.11784e-16
-2.24303e-16
-2.16241e-16
-2.19075e-16
-2.19195e-16
-2.17943e-16
-2.2779e-16
-2.27002e-16
-2.08376e-16
-2.35737e-16
-2.30023e-16
-2.04936e-16
-2.25302e-16
-2.174e-16
-2.03695e-16
-2.12257e-16
-2.13744e-16
-2.23517e-16
-2.29734e-16
-2.21608e-16
-2.33505e-16
-2.19173e-16
-2.17553e-16
-2.23109e-16
-2.18125e-16
-2.16026e-16
-2.02164e-16
-2.06392e-16
-2.18973e-16
-2.0637e-16
-2.30059e-16
-2.18405e-16
-2.10584e-16
-2.38644e-16
-2.26366e-16
-2.21763e-16
-2.16242e-16
-2.27218e-16
-2.37007e-16
-2.08354e-16
-1.96304e-16
-2.26464e-16
-2.27079e-16
-2.13269e-16
-2.08863e-16
-2.10398e-16
-2.29927e-16
-2.35489e-16
-2.47205e-16
-2.24056e-16
-2.23682e-16
-2.09808e-16
-2.03808e-16
-2.23528e-16
-2.34467e-16
-2.34182e-16
-2.08736e-16
-2.07176e-16
-2.10099e-16
-2.26739e-16
-2.39428e-16
-2.16723e-16
-2.22854e-16
-2.30216e-16
-2.53073e-16
-2.43142e-16
-2.1819e-16
-2.29812e-16
-2.18638e-16
-2.34163e-16
-2.19619e-16
-2.2297e-16
-2.35313e-16
-2.0827e-16
-2.01888e-16
-2.33427e-16
-1.93927e-16
-2.11683e-16
-2.17169e-16
-2.24221e-16
-2.36415e-16
-2.37193e-16
-2.27268e-16
-2.1719e-16
-1.98182e-16
-2.09903e-16
-2.2755e-16
-2.25026e-16
-2.13797e-16
-2.23831e-16
-2.32446e-16
-2.01266e-16
-2.09048e-16
-1.95844e-16
-2.14168e-16
-2.12668e-16
-2.14155e-16
-2.2911e-16
-2.36965e-16
-2.16126e-16
-2.04132e-16
-2.33903e-16
-2.36644e-16
-2.34408e-16
-2.16067e-16
-2.06983e-16
-2.34464e-16
-2.11807e-16
-2.17171e-16
-2.33277e-16
-2.22516e-16
-2.21396e-16
-2.22808e-16
-2.24504e-16
-2.03395e-16
-2.26823e-16
-2.23147e-16
-2.41199e-16
-2.03747e-16
-2.27156e-16
-2.31604e-16
-2.09149e-16
-2.30458e-16
-2.34799e-16
-2.08838e-16
-2.22072e-16
-2.25538e-16
-2.40139e-16
-2.16299e-16
-2.26173e-16
-2.08425e-16
-2.2017e-16
-2.24597e-16
-1.86439e-16
-2.06093e-16
-2.16723e-16
-2.34054e-16
-2.1323e-16
-2.18353e-16
-2.23117e-16
-2.05242e-16
-2.00457e-16
-2.39749e-16
-2.17855e-16
-2.33446e-16
-2.41949e-16
-2.26862e-16
-2.03367e-16
-2.21884e-16
-2.05896e-16
-2.16532e-16
-2.27414e-16
-2.18726e-16
-2.33178e-16
-2.26486e-16
-2.24161e-16
-2.28823e-16
-2.08035e-16
-2.29042e-16
-2.13146e-16
-2.26294e-16
-2.20574e-16
-2.16529e-16
-2.15184e-16
-2.26529e-16
-2.14366e-16
-2.51657e-16
-2.25507e-16
-2.20694e-16
-2.28025e-16
-2.08116e-16
-2.1024e-16
-2.10784e-16
-2.44018e-16
-2.30673e-16
-2.12105e-16
-2.16039e-16
-2.25679e-16
-2.2113e-16
-2.04846e-16
-2.1494e-16
-1.94913e-16
-2.39347e-16
-2.00994e-16
-2.22374e-16
-1.99996e-16
-2.08271e-16
-2.36054e-16
-2.25108e-16
-2.24673e-16
-2.15823e-16
-2.30827e-16
-2.32127e-16
-2.37842e-16
-4.10018e-16
-3.97814e-16
-3.7536e-16
-3.71532e-16
-3.93229e-16