# vtk DataFile Version 1.0
Electron Density - Current Sheet 
ASCII
DATASET STRUCTURED_POINTS
DIMENSIONS 256 128 1
ORIGIN 0 0 0
SPACING 0.15625 0.15625 1
POINT_DATA 32768
SCALARS rhoe float
LOOKUP_TABLE default
-1.73896e-18
-1.68409e-18
-1.94556e-18
-1.99715e-18
-1.79051e-18
-1.8998e-18
-1.73617e-18
-1.87523e-18
-1.79167e-18
-1.81785e-18
-2.09529e-18
-2.13748e-18
-1.69466e-18
-1.58831e-18
-1.77024e-18
-1.8621e-18
-1.91141e-18
-1.85326e-18
-2.00398e-18
-1.87477e-18
-2.01482e-18
-1.66331e-18
-1.8144e-18
-2.06827e-18
-1.86758e-18
-1.77418e-18
-1.8527e-18
-1.71316e-18
-1.70066e-18
-1.89195e-18
-1.94291e-18
-1.82422e-18
-1.77048e-18
-1.91156e-18
-2.02875e-18
-1.95577e-18
-1.83261e-18
-2.09051e-18
-1.8789e-18
-1.84637e-18
-1.69771e-18
-1.8434e-18
-2.09829e-18
-1.74485e-18
-1.47927e-18
-1.74121e-18
-1.79514e-18
-1.84278e-18
-2.12651e-18
-1.76629e-18
-1.99963e-18
-2.11858e-18
-1.86126e-18
-1.71991e-18
-1.84426e-18
-1.93464e-18
-1.62417e-18
-1.60995e-18
-2.02741e-18
-1.89287e-18
-1.74778e-18
-2.17529e-18
-2.17838e-18
-2.06312e-18
-1.73714e-18
-1.73223e-18
-1.84447e-18
-1.64214e-18
-2.02307e-18
-2.11228e-18
-1.7316e-18
-1.81902e-18
-1.90775e-18
-1.86245e-18
-1.53908e-18
-1.81374e-18
-1.63937e-18
-1.7994e-18
-1.56322e-18
-1.95665e-18
-1.82926e-18
-2.13954e-18
-1.80095e-18
-1.72628e-18
-2.10843e-18
-1.84215e-18
-1.78262e-18
-1.87578e-18
-1.96532e-18
-1.75004e-18
-1.70679e-18
-1.83885e-18
-1.87801e-18
-2.03027e-18
-1.61318e-18
-1.70688e-18
-2.13374e-18
-1.77528e-18
-1.76468e-18
-1.74909e-18
-1.73399e-18
-1.74333e-18
-2.06799e-18
-1.58676e-18
-1.91364e-18
-1.82126e-18
-1.94542e-18
-1.93516e-18
-1.96139e-18
-1.67443e-18
-1.94063e-18
-2.04401e-18
-1.8936e-18
-1.82496e-18
-1.7978e-18
-1.88781e-18
-1.61658e-18
-1.72631e-18
-1.72828e-18
-2.02447e-18
-1.9635e-18
-1.7471e-18
-1.87104e-18
-2.0361e-18
-1.89188e-18
-1.79861e-18
-2.15382e-18
-1.77633e-18
-1.41403e-18
-1.73774e-18
-1.7518e-18
-1.77169e-18
-1.79308e-18
-1.95484e-18
-1.88286e-18
-1.84965e-18
-2.07064e-18
-1.76833e-18
-1.6875e-18
-1.70478e-18
-2.01136e-18
-1.91061e-18
-1.87983e-18
-1.90634e-18
-1.49648e-18
-1.62098e-18
-1.67909e-18
-1.87859e-18
-1.97894e-18
-2.01751e-18
-1.97599e-18
-1.77817e-18
-1.73669e-18
-1.85313e-18
-1.85727e-18
-2.05643e-18
-1.7578e-18
-1.6801e-18
-1.76085e-18
-2.22177e-18
-2.23305e-18
-1.96305e-18
-1.7312e-18
-1.62822e-18
-1.76284e-18
-2.15032e-18
-1.90233e-18
-1.80551e-18
-1.62982e-18
-1.93262e-18
-1.91037e-18
-2.01101e-18
-1.7776e-18
-1.85429e-18
-1.77645e-18
-1.62259e-18
-1.71377e-18
-1.68529e-18
-2.04309e-18
-2.06829e-18
-1.88908e-18
-2.05217e-18
-1.98894e-18
-1.90601e-18
-1.49992e-18
-1.95302e-18
-1.91752e-18
-1.60302e-18
-1.84356e-18
-1.9838e-18
-1.85941e-18
-1.71618e-18
-1.82389e-18
-1.77987e-18
-1.53991e-18
-1.77249e-18
-1.77801e-18
-1.88082e-18
-2.06469e-18
-1.89119e-18
-2.03717e-18
-1.85604e-18
-1.74777e-18
-1.95193e-18
-2.00986e-18
-1.8691e-18
-1.78731e-18
-1.8709e-18
-1.79961e-18
-1.8889e-18
-1.96607e-18
-1.51481e-18
-1.65352e-18
-1.77451e-18
-1.93424e-18
-2.06642e-18
-2.17178e-18
-1.86907e-18
-1.84644e-18
-2.14592e-18
-1.62424e-18
-1.892e-18
-1.87733e-18
-1.82799e-18
-1.82763e-18
-1.62044e-18
-1.83533e-18
-1.68324e-18
-1.7542e-18
-1.72902e-18
-1.83172e-18
-1.88791e-18
-1.84569e-18
-1.6234e-18
-1.90418e-18
-1.81604e-18
-2.054e-18
-1.94458e-18
-1.91047e-18
-1.85163e-18
-1.81103e-18
-1.57357e-18
-1.82791e-18
-2.03424e-18
-1.84358e-18
-1.75404e-18
-1.97805e-18
-2.01002e-18
-1.80533e-18
-2.0757e-18
-2.01317e-18
-1.76041e-18
-1.89741e-18
-1.93979e-18
-1.82704e-18
-1.93445e-18
-2.91003e-18
-2.58437e-18
-2.75003e-18
-2.66018e-18
-2.67528e-18
-2.80928e-18
-2.95166e-18
-2.6684e-18
-2.69004e-18
-2.61343e-18
-3.15094e-18
-2.95934e-18
-2.83716e-18
-2.75465e-18
-3.00159e-18
-3.01143e-18
-2.9458e-18
-2.84493e-18
-2.64408e-18
-2.71488e-18
-2.69286e-18
-2.76741e-18
-2.98186e-18
-2.98168e-18
-2.52005e-18
-2.65266e-18
-2.8101e-18
-2.57251e-18
-2.95049e-18
-2.92249e-18
-2.88717e-18
-2.85371e-18
-2.67786e-18
-2.75771e-18
-2.81268e-18
-2.88937e-18
-3.16066e-18
-2.65745e-18
-2.91596e-18
-2.79931e-18
-2.69662e-18
-2.81255e-18
-2.71992e-18
-2.76767e-18
-2.80772e-18
-2.94295e-18
-3.01087e-18
-2.61446e-18
-3.06449e-18
-2.81502e-18
-2.75337e-18
-2.9463e-18
-2.85111e-18
-2.62098e-18
-2.81678e-18
-2.88115e-18
-2.93837e-18
-2.82946e-18
-2.77649e-18
-2.50216e-18
-2.68387e-18
-2.97516e-18
-2.92535e-18
-2.75573e-18
-2.95497e-18
-2.84434e-18
-2.78469e-18
-2.78691e-18
-2.75542e-18
-2.62947e-18
-2.85503e-18
-2.89333e-18
-2.6389e-18
-3.02056e-18
-2.92702e-18
-2.91567e-18
-2.59687e-18
-2.89369e-18
-2.87035e-18
-2.82058e-18
-2.7381e-18
-2.89757e-18
-2.92429e-18
-2.67247e-18
-2.818e-18
-2.91227e-18
-2.86264e-18
-2.73316e-18
-2.96288e-18
-2.87516e-18
-2.64577e-18
-3.09297e-18
-2.91489e-18
-2.7308e-18
-3.02251e-18
-2.72442e-18
-2.8169e-18
-2.5277e-18
-2.5499e-18
-2.70744e-18
-2.91316e-18
-3.07544e-18
-2.79157e-18
-2.50617e-18
-2.76176e-18
-2.72003e-18
-2.98147e-18
-2.87935e-18
-2.85065e-18
-2.82389e-18
-3.03193e-18
-3.01432e-18
-2.70147e-18
-2.53307e-18
-2.42308e-18
-2.88248e-18
-2.87345e-18
-2.8402e-18
-3.01369e-18
-3.03803e-18
-3.00023e-18
-2.93994e-18
-2.95291e-18
-2.77957e-18
-3.26131e-18
-2.90318e-18
-2.8463e-18
-2.59886e-18
-2.42647e-18
-2.81363e-18
-2.88766e-18
-2.75023e-18
-2.85406e-18
-2.79687e-18
-3.06718e-18
-3.04464e-18
-3.04071e-18
-2.43243e-18
-2.74585e-18
-2.69555e-18
-2.69889e-18
-2.67726e-18
-2.59899e-18
-3.00383e-18
-2.87315e-18
-3.04283e-18
-2.76521e-18
-2.7978e-18
-2.72178e-18
-2.96563e-18
-2.8743e-18
-2.7831e-18
-2.59975e-18
-2.71664e-18
-2.92225e-18
-3.08417e-18
-2.84298e-18
-2.82991e-18
-2.77921e-18
-2.9344e-18
-2.92735e-18
-2.80413e-18
-2.71744e-18
-2.76766e-18
-2.78902e-18
-2.85862e-18
-2.55589e-18
-2.91491e-18
-2.73285e-18
-2.97667e-18
-2.98704e-18
-2.67278e-18
-2.46012e-18
-2.86047e-18
-3.12101e-18
-2.78233e-18
-2.79501e-18
-2.81636e-18
-3.0279e-18
-2.79923e-18
-2.61076e-18
-2.60133e-18
-3.11831e-18
-3.03324e-18
-2.69932e-18
-2.80727e-18
-2.63913e-18
-2.5076e-18
-2.87097e-18
-2.8062e-18
-2.79713e-18
-2.72075e-18
-2.98882e-18
-3.0638e-18
-2.80489e-18
-2.83801e-18
-2.96359e-18
-2.75925e-18
-2.88011e-18
-2.6593e-18
-2.82375e-18
-2.87051e-18
-2.79244e-18
-2.85319e-18
-3.00185e-18
-2.81622e-18
-2.79446e-18
-2.81275e-18
-2.9619e-18
-2.95441e-18
-3.07386e-18
-2.8765e-18
-2.67584e-18
-2.80946e-18
-2.68244e-18
-2.78643e-18
-2.88497e-18
-2.72256e-18
-2.95305e-18
-3.12024e-18
-2.56695e-18
-2.41593e-18
-2.80002e-18
-2.91717e-18
-2.95218e-18
-2.80571e-18
-2.87003e-18
-2.90029e-18
-2.82534e-18
-2.79866e-18
-2.8158e-18
-2.70277e-18
-2.60343e-18
-2.84197e-18
-2.9587e-18
-2.67188e-18
-2.73802e-18
-2.9678e-18
-2.95364e-18
-2.90248e-18
-3.05158e-18
-2.43362e-18
-2.65818e-18
-2.97486e-18
-2.73786e-18
-2.89714e-18
-2.66496e-18
-2.70138e-18
-2.83129e-18
-2.95052e-18
-3.04299e-18
-2.7022e-18
-2.8007e-18
-2.76472e-18
-2.94269e-18
-3.1234e-18
-4.95772e-18
-4.83091e-18
-5.14475e-18
-5.46885e-18
-5.39454e-18
-5.01499e-18
-5.26669e-18
-5.28263e-18
-4.67082e-18
-5.09589e-18
-5.28256e-18
-4.98967e-18
-5.40878e-18
-5.21507e-18
-5.46471e-18
-5.29781e-18
-5.5899e-18
-5.15257e-18
-4.5569e-18
-5.02476e-18
-5.02292e-18
-5.22235e-18
-5.56194e-18
-5.64824e-18
-5.17693e-18
-5.21747e-18
-5.38474e-18
-5.28063e-18
-5.11519e-18
-4.88652e-18
-4.92556e-18
-4.89893e-18
-5.18373e-18
-5.41587e-18
-5.82092e-18
-5.07259e-18
-5.35837e-18
-4.88764e-18
-5.09481e-18
-4.85512e-18
-5.13985e-18
-5.26951e-18
-4.77069e-18
-5.26716e-18
-5.35146e-18
-5.36322e-18
-5.51979e-18
-5.3924e-18
-4.86229e-18
-4.93378e-18
-5.31044e-18
-5.28191e-18
-4.65464e-18
-5.14159e-18
-5.28394e-18
-4.85301e-18
-5.25388e-18
-5.48247e-18
-5.48047e-18
-5.70774e-18
-4.91739e-18
-5.16336e-18
-5.15e-18
-5.13214e-18
-5.80755e-18
-4.99978e-18
-4.76057e-18
-4.91192e-18
-5.37005e-18
-4.88167e-18
-5.12968e-18
-4.67159e-18
-5.39313e-18
-5.39132e-18
-5.22075e-18
-4.93464e-18
-5.16128e-18
-5.61203e-18
-5.70732e-18
-5.25767e-18
-5.25897e-18
-5.53772e-18
-5.26768e-18
-4.91286e-18
-5.21872e-18
-4.8356e-18
-4.8749e-18
-5.64078e-18
-5.59003e-18
-5.14251e-18
-4.94158e-18
-5.47657e-18
-4.67111e-18
-5.22624e-18
-5.54424e-18
-5.50926e-18
-5.26664e-18
-4.81706e-18
-5.16944e-18
-4.99853e-18
-4.71493e-18
-5.56594e-18
-5.17584e-18
-5.24205e-18
-5.1399e-18
-4.88155e-18
-5.50462e-18
-4.68951e-18
-4.90282e-18
-5.69287e-18
-5.4888e-18
-5.52039e-18
-5.42407e-18
-4.90201e-18
-4.5193e-18
-5.86819e-18
-5.46215e-18
-5.42773e-18
-4.75311e-18
-4.82544e-18
-5.91352e-18
-5.35109e-18
-5.60364e-18
-4.85035e-18
-4.90477e-18
-5.29608e-18
-5.32968e-18
-5.63618e-18
-4.87116e-18
-5.09398e-18
-5.32103e-18
-5.09943e-18
-5.07989e-18
-5.33088e-18
-4.85467e-18
-5.00707e-18
-5.06972e-18
-5.0382e-18
-5.63904e-18
-5.3752e-18
-4.99076e-18
-5.27607e-18
-5.22061e-18
-5.04728e-18
-5.34853e-18
-5.16728e-18
-5.47046e-18
-5.13243e-18
-5.1752e-18
-4.87088e-18
-4.8171e-18
-5.24013e-18
-5.07632e-18
-5.01104e-18
-4.67429e-18
-5.26872e-18
-5.42352e-18
-5.31633e-18
-5.45841e-18
-5.57412e-18
-5.33149e-18
-5.29664e-18
-4.9503e-18
-5.506e-18
-5.36889e-18
-4.9052e-18
-4.95575e-18
-5.00794e-18
-4.84867e-18
-5.39018e-18
-5.37648e-18
-5.06898e-18
-5.43647e-18
-5.9747e-18
-4.69075e-18
-5.18617e-18
-5.02467e-18
-5.78163e-18
-5.30955e-18
-4.53293e-18
-4.87405e-18
-5.08944e-18
-5.15497e-18
-5.28526e-18
-5.5671e-18
-5.49773e-18
-5.27411e-18
-5.16198e-18
-5.4202e-18
-4.80201e-18
-4.92563e-18
-4.78072e-18
-5.61305e-18
-5.24336e-18
-5.19884e-18
-5.2264e-18
-4.9051e-18
-5.38562e-18
-5.07484e-18
-4.95696e-18
-5.59675e-18
-5.5716e-18
-5.19523e-18
-4.91885e-18
-5.8084e-18
-5.26864e-18
-4.93859e-18
-5.18166e-18
-5.05655e-18
-5.18692e-18
-5.38307e-18
-5.36556e-18
-4.69376e-18
-4.89806e-18
-5.06748e-18
-5.40103e-18
-5.39902e-18
-4.92195e-18
-4.9999e-18
-5.00653e-18
-4.9073e-18
-4.76102e-18
-5.2604e-18
-5.37766e-18
-5.3782e-18
-5.43857e-18
-5.35357e-18
-5.94245e-18
-5.09103e-18
-5.29833e-18
-5.19572e-18
-5.25006e-18
-5.03139e-18
-5.45746e-18
-5.18694e-18
-4.54453e-18
-5.03171e-18
-5.32651e-18
-5.69457e-18
-5.38188e-18
-5.33999e-18
-4.77445e-18
-4.8508e-18
-5.29558e-18
-5.75883e-18
-5.43204e-18
-5.17625e-18
-4.84039e-18
-4.90146e-18
-5.20543e-18
-5.17681e-18
-5.59024e-18
-5.24417e-18
-5.01632e-18
-5.31704e-18
-5.665e-18
-9.87116e-18
-8.85957e-18
-9.91624e-18
-9.87422e-18
-1.02225e-17
-9.78134e-18
-9.3414e-18
-1.00481e-17
-9.27815e-18
-9.74531e-18
-1.0016e-17
-8.9985e-18
-9.85763e-18
-1.03552e-17
-1.02627e-17
-9.66207e-18
-9.5211e-18
-9.41015e-18
-9.39835e-18
-1.01313e-17
-1.06514e-17
-1.02398e-17
-9.03052e-18
-9.84385e-18
-8.65688e-18
-9.63414e-18
-1.07181e-17
-9.48066e-18
-8.57863e-18
-9.75429e-18
-1.04411e-17
-9.9728e-18
-8.79749e-18
-9.79564e-18
-1.0029e-17
-1.04451e-17
-9.56876e-18
-9.26785e-18
-9.14047e-18
-1.04099e-17
-9.12598e-18
-9.04074e-18
-1.00141e-17
-9.59272e-18
-1.05903e-17
-1.03954e-17
-9.93491e-18
-9.53334e-18
-9.90865e-18
-9.194e-18
-1.01566e-17
-9.08343e-18
-9.81641e-18
-1.01409e-17
-9.07961e-18
-9.09313e-18
-9.37135e-18
-9.31964e-18
-1.03037e-17
-9.82968e-18
-8.98133e-18
-1.03042e-17
-9.36374e-18
-1.03623e-17
-9.047e-18
-9.29334e-18
-9.21948e-18
-1.05256e-17
-1.01053e-17
-1.06978e-17
-9.80859e-18
-8.56341e-18
-1.00536e-17
-9.27523e-18
-8.6444e-18
-9.17446e-18
-9.82632e-18
-1.05709e-17
-1.03961e-17
-1.06928e-17
-1.04254e-17
-9.65497e-18
-8.31349e-18
-9.17226e-18
-1.01516e-17
-1.00036e-17
-9.20898e-18
-1.01966e-17
-9.57743e-18
-1.00334e-17
-9.77487e-18
-9.393e-18
-9.52946e-18
-1.00477e-17
-9.95969e-18
-1.00295e-17
-9.04518e-18
-9.60473e-18
-9.69713e-18
-9.50961e-18
-9.27572e-18
-9.36471e-18
-9.201e-18
-1.0202e-17
-1.02273e-17
-9.83484e-18
-9.5102e-18
-9.49141e-18
-9.60088e-18
-1.02128e-17
-9.95828e-18
-9.59804e-18
-9.47806e-18
-9.47989e-18
-9.92343e-18
-1.05365e-17
-9.43e-18
-8.93467e-18
-9.69245e-18
-1.02667e-17
-1.08647e-17
-1.02816e-17
-8.87657e-18
-8.79075e-18
-9.10605e-18
-9.85202e-18
-1.02964e-17
-9.682e-18
-9.59484e-18
-9.44482e-18
-9.46081e-18
-9.18842e-18
-1.04422e-17
-1.06437e-17
-9.5575e-18
-1.0451e-17
-9.83679e-18
-9.87275e-18
-9.53803e-18
-9.65907e-18
-9.21427e-18
-9.57276e-18
-1.01372e-17
-8.88444e-18
-8.50845e-18
-9.25337e-18
-9.93379e-18
-9.84554e-18
-9.77411e-18
-9.04701e-18
-1.00015e-17
-1.10182e-17
-8.88804e-18
-9.80748e-18
-8.97009e-18
-9.94544e-18
-9.84047e-18
-1.02431e-17
-9.73846e-18
-9.57239e-18
-9.33534e-18
-9.32968e-18
-9.04488e-18
-1.0326e-17
-1.03292e-17
-1.02293e-17
-9.28047e-18
-9.85692e-18
-9.79582e-18
-9.20886e-18
-9.89262e-18
-1.03087e-17
-1.08858e-17
-8.98749e-18
-8.77049e-18
-8.70444e-18
-1.04201e-17
-1.01828e-17
-9.68716e-18
-1.01825e-17
-9.91048e-18
-9.94403e-18
-9.98534e-18
-9.25573e-18
-9.34941e-18
-9.51744e-18
-9.47364e-18
-9.60422e-18
-1.01678e-17
-9.59141e-18
-9.87261e-18
-9.38702e-18
-9.8099e-18
-9.81546e-18
-8.86912e-18
-1.05991e-17
-9.75935e-18
-1.05178e-17
-9.1295e-18
-9.40722e-18
-9.32384e-18
-1.03056e-17
-9.88837e-18
-9.47645e-18
-1.10804e-17
-9.51681e-18
-8.89592e-18
-8.79637e-18
-1.01462e-17
-1.07439e-17
-8.89658e-18
-9.47752e-18
-1.01541e-17
-8.6766e-18
-1.01239e-17
-9.44647e-18
-9.56165e-18
-9.45274e-18
-9.73167e-18
-9.45081e-18
-1.02771e-17
-9.4398e-18
-1.03602e-17
-9.66121e-18
-8.6238e-18
-9.4434e-18
-1.05885e-17
-1.09768e-17
-9.68137e-18
-1.0434e-17
-9.71455e-18
-1.03078e-17
-1.02598e-17
-9.01992e-18
-8.70716e-18
-8.44913e-18
-9.49192e-18
-1.03159e-17
-9.79112e-18
-9.17677e-18
-9.46819e-18
-1.03441e-17
-1.00936e-17
-9.83004e-18
-1.08664e-17
-9.43457e-18
-8.90912e-18
-9.13393e-18
-9.24056e-18
-1.05127e-17
-9.96171e-18
-9.10702e-18
-9.36017e-18
-9.61208e-18
-9.71984e-18
-9.41268e-18
-1.83038e-17
-1.84212e-17
-1.75127e-17
-1.82157e-17
-1.77506e-17
-1.93025e-17
-1.96008e-17
-1.87723e-17
-1.82243e-17
-1.7904e-17
-1.73567e-17
-1.66573e-17
-1.80976e-17
-1.82682e-17
-1.85576e-17
-1.81588e-17
-1.92502e-17
-1.62271e-17
-1.711e-17
-1.66354e-17
-1.89542e-17
-1.95515e-17
-1.8419e-17
-1.70542e-17
-1.6921e-17
-1.7785e-17
-2.14473e-17
-2.05064e-17
-1.86527e-17
-1.78351e-17
-1.92653e-17
-1.88499e-17
-1.61186e-17
-1.61519e-17
-1.78562e-17
-2.03136e-17
-1.78158e-17
-1.66218e-17
-1.69339e-17
-1.78785e-17
-1.75146e-17
-1.72894e-17
-1.85571e-17
-1.92685e-17
-1.85439e-17
-1.88644e-17
-1.77134e-17
-1.70216e-17
-1.83845e-17
-1.85531e-17
-1.73537e-17
-1.78322e-17
-1.93832e-17
-1.81957e-17
-1.77073e-17
-1.99479e-17
-1.80587e-17
-1.73113e-17
-1.67204e-17
-1.91668e-17
-1.8022e-17
-1.74904e-17
-1.88119e-17
-1.85633e-17
-1.70722e-17
-1.77878e-17
-1.75126e-17
-2.01891e-17
-1.84795e-17
-1.77536e-17
-1.75858e-17
-1.78104e-17
-1.7754e-17
-1.82258e-17
-1.6366e-17
-1.94381e-17
-1.92622e-17
-1.88095e-17
-1.84322e-17
-1.69822e-17
-1.71079e-17
-1.82995e-17
-1.83219e-17
-1.76464e-17
-1.91094e-17
-1.83696e-17
-1.94478e-17
-1.90644e-17
-1.85364e-17
-1.76443e-17
-1.84715e-17
-1.8675e-17
-1.884e-17
-1.68411e-17
-1.59566e-17
-1.86559e-17
-1.79505e-17
-1.83106e-17
-1.8703e-17
-1.71953e-17
-1.69755e-17
-1.70079e-17
-1.91569e-17
-1.81789e-17
-1.80179e-17
-1.75322e-17
-2.04051e-17
-1.92379e-17
-1.88978e-17
-1.88264e-17
-1.87186e-17
-1.72721e-17
-1.83755e-17
-1.75495e-17
-1.79246e-17
-1.7493e-17
-1.80727e-17
-1.66183e-17
-1.85617e-17
-1.919e-17
-1.67453e-17
-1.89758e-17
-1.89805e-17
-1.81297e-17
-1.89863e-17
-1.65212e-17
-1.71982e-17
-1.7801e-17
-1.98749e-17
-1.76606e-17
-1.72739e-17
-1.7454e-17
-1.89814e-17
-1.78257e-17
-1.77967e-17
-1.74956e-17
-1.87443e-17
-1.7997e-17
-1.81744e-17
-1.79596e-17
-1.85441e-17
-1.86963e-17
-1.9882e-17
-1.8067e-17
-1.7781e-17
-1.69797e-17
-1.71751e-17
-1.86268e-17
-1.81634e-17
-1.71615e-17
-1.72406e-17
-1.94497e-17
-1.72259e-17
-1.74501e-17
-1.91839e-17
-1.63714e-17
-1.74096e-17
-1.98291e-17
-1.79168e-17
-1.70652e-17
-1.88322e-17
-1.88317e-17
-1.82526e-17
-1.70067e-17
-1.69464e-17
-1.84887e-17
-1.82537e-17
-2.12763e-17
-1.98851e-17
-1.75635e-17
-1.76152e-17
-1.87627e-17
-1.86332e-17
-1.78851e-17
-1.76445e-17
-1.77268e-17
-1.73474e-17
-1.94467e-17
-2.04952e-17
-1.88104e-17
-1.6641e-17
-1.73592e-17
-1.79146e-17
-1.73936e-17
-1.66537e-17
-1.99383e-17
-1.90169e-17
-1.7534e-17
-1.59062e-17
-1.75816e-17
-1.98704e-17
-1.92618e-17
-1.79373e-17
-1.77133e-17
-1.64827e-17
-1.88881e-17
-1.86021e-17
-1.85964e-17
-1.91589e-17
-1.6755e-17
-1.67696e-17
-1.81385e-17
-1.83043e-17
-1.93077e-17
-1.97762e-17
-1.87144e-17
-1.76814e-17
-1.87232e-17
-1.80313e-17
-1.74521e-17
-1.80442e-17
-1.81213e-17
-1.88003e-17
-1.79913e-17
-1.80618e-17
-1.92438e-17
-1.75305e-17
-1.6653e-17
-1.67399e-17
-1.77253e-17
-1.85664e-17
-1.94935e-17
-1.81082e-17
-1.95651e-17
-1.72622e-17
-1.80735e-17
-1.82408e-17
-1.76489e-17
-1.69392e-17
-1.84725e-17
-1.88099e-17
-1.90558e-17
-1.8631e-17
-1.76256e-17
-1.86672e-17
-1.86295e-17
-1.80893e-17
-1.74486e-17
-1.90187e-17
-1.77743e-17
-1.7095e-17
-1.63057e-17
-1.74787e-17
-1.70176e-17
-2.10918e-17
-1.72618e-17
-1.94387e-17
-1.83406e-17
-1.75078e-17
-1.87323e-17
-1.78963e-17
-1.6963e-17
-1.68881e-17
-1.82849e-17
-1.90555e-17
-1.88579e-17
-3.51712e-17
-3.32073e-17
-3.55531e-17
-3.39983e-17
-3.31876e-17
-3.5872e-17
-3.0831e-17
-3.73992e-17
-3.61819e-17
-3.16471e-17
-3.06232e-17
-3.1081e-17
-3.60917e-17
-3.24115e-17
-3.31966e-17
-3.42613e-17
-3.51644e-17
-3.24707e-17
-3.28123e-17
-3.61401e-17
-3.47993e-17
-3.11211e-17
-3.55563e-17
-3.27463e-17
-3.25375e-17
-3.26337e-17
-3.30821e-17
-3.65386e-17
-4.10413e-17
-3.7325e-17
-3.09669e-17
-3.2775e-17
-3.01863e-17
-3.07006e-17
-3.63e-17
-3.34853e-17
-3.45633e-17
-3.5417e-17
-3.61911e-17
-3.26536e-17
-3.31044e-17
-3.25318e-17
-3.33719e-17
-3.61858e-17
-3.20404e-17
-3.15684e-17
-3.51381e-17
-3.28577e-17
-3.3901e-17
-3.61393e-17
-3.38361e-17
-3.15257e-17
-3.32051e-17
-3.39738e-17
-3.13794e-17
-3.10971e-17
-3.55934e-17
-3.32584e-17
-3.27038e-17
-3.44501e-17
-3.46259e-17
-3.78436e-17
-3.45375e-17
-3.22604e-17
-3.32559e-17
-3.47527e-17
-3.29477e-17
-3.15029e-17
-3.48938e-17
-3.27755e-17
-3.47849e-17
-3.36849e-17
-3.23811e-17
-3.4134e-17
-3.50219e-17
-3.48411e-17
-3.81711e-17
-3.65833e-17
-3.36979e-17
-3.15358e-17
-3.63524e-17
-3.01887e-17
-3.24157e-17
-3.32744e-17
-3.78889e-17
-3.21711e-17
-3.47848e-17
-3.34041e-17
-3.48102e-17
-3.33796e-17
-3.52356e-17
-3.32461e-17
-3.09829e-17
-3.40102e-17
-3.46978e-17
-3.63371e-17
-3.28314e-17
-3.45556e-17
-3.55314e-17
-3.25538e-17
-3.20288e-17
-2.86576e-17
-3.40843e-17
-3.61456e-17
-3.29286e-17
-3.47475e-17
-3.81495e-17
-3.53539e-17
-3.41047e-17
-3.23739e-17
-3.32748e-17
-3.3187e-17
-3.37185e-17
-3.07891e-17
-3.29776e-17
-3.54121e-17
-3.34372e-17
-3.54322e-17
-3.64764e-17
-3.22974e-17
-3.33999e-17
-3.04366e-17
-3.35924e-17
-3.25365e-17
-3.57392e-17
-3.50804e-17
-3.39104e-17
-3.66725e-17
-3.9165e-17
-3.40885e-17
-3.19877e-17
-3.32572e-17
-3.35677e-17
-3.27707e-17
-3.19701e-17
-3.17885e-17
-3.27579e-17
-3.35249e-17
-3.5237e-17
-3.19976e-17
-3.15603e-17
-3.3821e-17
-3.64294e-17
-3.50537e-17
-3.36787e-17
-3.20313e-17
-3.26938e-17
-3.66299e-17
-3.51351e-17
-3.44884e-17
-3.15538e-17
-3.54957e-17
-3.2979e-17
-3.46989e-17
-3.22453e-17
-3.36462e-17
-3.59241e-17
-3.46079e-17
-3.37711e-17
-3.2924e-17
-3.36821e-17
-3.25797e-17
-3.56967e-17
-3.19723e-17
-3.14813e-17
-3.19299e-17
-3.27739e-17
-3.64231e-17
-3.43852e-17
-3.28696e-17
-3.47447e-17
-3.4817e-17
-3.39772e-17
-3.50052e-17
-3.35876e-17
-3.92921e-17
-3.44402e-17
-3.20364e-17
-3.55531e-17
-3.40134e-17
-3.25461e-17
-3.20795e-17
-3.3345e-17
-3.31331e-17
-3.21342e-17
-3.42765e-17
-3.4479e-17
-3.5686e-17
-3.31148e-17
-3.43426e-17
-3.3978e-17
-3.3522e-17
-3.4717e-17
-3.38114e-17
-3.31908e-17
-3.59678e-17
-3.2243e-17
-3.64055e-17
-3.23912e-17
-3.71913e-17
-3.1174e-17
-3.21111e-17
-3.30124e-17
-3.42651e-17
-3.4807e-17
-3.48357e-17
-3.10291e-17
-3.6078e-17
-3.1418e-17
-3.27681e-17
-3.27015e-17
-3.26435e-17
-3.36183e-17
-3.44072e-17
-3.63586e-17
-3.61504e-17
-3.52488e-17
-3.3758e-17
-3.25048e-17
-3.45943e-17
-3.68374e-17
-3.4035e-17
-3.15644e-17
-3.51468e-17
-3.22496e-17
-3.41365e-17
-3.5977e-17
-3.40392e-17
-3.35614e-17
-3.18632e-17
-3.14065e-17
-3.65079e-17
-3.53855e-17
-3.1574e-17
-3.18412e-17
-3.50614e-17
-3.20351e-17
-2.88483e-17
-3.50563e-17
-3.75285e-17
-3.36879e-17
-3.31879e-17
-3.48248e-17
-3.61921e-17
-3.48254e-17
-3.1662e-17
-3.47258e-17
-3.27467e-17
-3.49067e-17
-3.30666e-17
-3.25235e-17
-3.35361e-17
-3.75412e-17
-3.54544e-17
-3.2662e-17
-3.33943e-17
-6.39714e-17
-5.9983e-17
-6.5928e-17
-5.98842e-17
-5.94334e-17
-6.288e-17
-6.2268e-17
-6.72821e-17
-6.51202e-17
-6.43402e-17
-5.82253e-17
-5.82045e-17
-5.833e-17
-6.96083e-17
-6.69871e-17
-6.32176e-17
-6.34112e-17
-6.06248e-17
-5.85956e-17
-6.79397e-17
-6.46125e-17
-6.13519e-17
-7.06173e-17
-6.33831e-17
-7.16798e-17
-6.29575e-17
-6.07181e-17
-6.01742e-17
-6.20567e-17
-6.57226e-17
-6.03156e-17
-6.03238e-17
-6.17568e-17
-5.63279e-17
-6.59698e-17
-6.57353e-17
-6.03852e-17
-6.33829e-17
-6.82152e-17
-5.96648e-17
-6.4934e-17
-7.05427e-17
-6.66873e-17
-6.41708e-17
-6.01205e-17
-6.13352e-17
-5.82108e-17
-5.94614e-17
-6.4371e-17
-7.17092e-17
-6.61676e-17
-6.11765e-17
-5.88906e-17
-6.42508e-17
-6.57248e-17
-5.74464e-17
-6.25318e-17
-6.5827e-17
-6.90151e-17
-6.28387e-17
-5.99021e-17
-6.6533e-17
-6.35513e-17
-6.62948e-17
-5.70968e-17
-6.59959e-17
-6.12663e-17
-6.07312e-17
-5.89724e-17
-6.53107e-17
-6.68503e-17
-6.14063e-17
-6.17733e-17
-6.92002e-17
-6.74015e-17
-6.16001e-17
-6.89021e-17
-6.53633e-17
-5.93433e-17
-5.76065e-17
-6.71038e-17
-6.01358e-17
-6.26458e-17
-6.13027e-17
-6.47991e-17
-5.99064e-17
-6.53402e-17
-6.43944e-17
-5.53948e-17
-6.03997e-17
-6.65577e-17
-6.1965e-17
-6.79676e-17
-6.87227e-17
-6.33936e-17
-6.07978e-17
-6.50139e-17
-6.79406e-17
-6.67452e-17
-5.9704e-17
-6.07673e-17
-6.36372e-17
-6.5519e-17
-6.15741e-17
-5.81412e-17
-5.9998e-17
-7.08788e-17
-6.02064e-17
-5.77718e-17
-6.23186e-17
-6.50784e-17
-6.35733e-17
-6.35615e-17
-6.07093e-17
-6.5947e-17
-6.22621e-17
-6.0892e-17
-6.62981e-17
-6.41778e-17
-6.213e-17
-6.54506e-17
-6.16094e-17
-6.43269e-17
-6.55817e-17
-6.92395e-17
-6.78284e-17
-6.36224e-17
-5.71918e-17
-6.1007e-17
-6.92648e-17
-6.46411e-17
-6.31409e-17
-5.94158e-17
-6.26156e-17
-6.10538e-17
-5.76456e-17
-6.02901e-17
-6.59708e-17
-6.22693e-17
-6.72438e-17
-6.34187e-17
-5.79528e-17
-6.90586e-17
-5.88274e-17
-6.25212e-17
-6.26666e-17
-6.69134e-17
-6.43048e-17
-6.10755e-17
-5.59777e-17
-6.31529e-17
-6.87969e-17
-6.94963e-17
-6.45884e-17
-6.77893e-17
-6.21031e-17
-6.47961e-17
-6.16468e-17
-6.10117e-17
-6.45551e-17
-6.67029e-17
-6.12922e-17
-6.17925e-17
-6.20098e-17
-6.01442e-17
-5.98434e-17
-6.39958e-17
-6.5451e-17
-5.69052e-17
-6.29869e-17
-6.72137e-17
-6.44365e-17
-6.13258e-17
-6.5246e-17
-6.99512e-17
-6.20228e-17
-5.79606e-17
-6.58857e-17
-6.53501e-17
-6.30013e-17
-6.48352e-17
-6.10247e-17
-6.05335e-17
-6.45979e-17
-6.26927e-17
-6.67153e-17
-6.92226e-17
-6.34211e-17
-5.99566e-17
-6.83998e-17
-5.87416e-17
-5.93658e-17
-6.1364e-17
-6.39337e-17
-6.4198e-17
-6.86857e-17
-6.98028e-17
-6.12035e-17
-5.92379e-17
-5.617e-17
-6.25726e-17
-6.23149e-17
-6.02967e-17
-6.85456e-17
-6.44944e-17
-6.57062e-17
-6.29289e-17
-6.6169e-17
-6.0228e-17
-5.97545e-17
-6.12337e-17
-6.68262e-17
-6.37737e-17
-6.1282e-17
-6.19156e-17
-6.74304e-17
-6.48506e-17
-6.58407e-17
-6.27115e-17
-5.73652e-17
-6.50504e-17
-7.06344e-17
-6.22574e-17
-6.25066e-17
-6.27725e-17
-6.17004e-17
-5.65474e-17
-6.69395e-17
-6.63431e-17
-5.82638e-17
-5.89552e-17
-6.773e-17
-6.4943e-17
-6.4786e-17
-6.25456e-17
-6.1318e-17
-6.78242e-17
-6.2169e-17
-6.61636e-17
-6.15577e-17
-6.32898e-17
-5.96716e-17
-6.49499e-17
-6.37024e-17
-6.2191e-17
-6.26382e-17
-5.6354e-17
-6.14805e-17
-6.08969e-17
-6.26202e-17
-6.59612e-17
-6.73904e-17
-6.04421e-17
-6.92894e-17
-6.61979e-17
-6.36527e-17
-1.13521e-16
-1.22656e-16
-1.16159e-16
-1.17508e-16
-1.19493e-16
-1.2501e-16
-1.1581e-16
-1.2122e-16
-1.2618e-16
-1.09098e-16
-1.17236e-16
-1.16125e-16
-1.1684e-16
-1.10906e-16
-1.2227e-16
-1.2528e-16
-1.22356e-16
-1.14309e-16
-1.04957e-16
-1.1783e-16
-1.24042e-16
-1.20114e-16
-1.15884e-16
-1.15116e-16
-1.27679e-16
-1.22021e-16
-1.20585e-16
-1.17751e-16
-1.10509e-16
-1.19203e-16
-1.10104e-16
-1.09303e-16
-1.17282e-16
-1.13379e-16
-1.25857e-16
-1.3003e-16
-1.21812e-16
-1.14352e-16
-1.2213e-16
-1.09608e-16
-1.18194e-16
-1.17631e-16
-1.21372e-16
-1.17322e-16
-1.15319e-16
-1.15644e-16
-1.20113e-16
-1.20275e-16
-1.2247e-16
-1.22987e-16
-1.12172e-16
-1.14655e-16
-1.25353e-16
-1.21489e-16
-1.09653e-16
-1.20064e-16
-1.23799e-16
-1.21604e-16
-1.24952e-16
-1.24474e-16
-1.15619e-16
-1.04529e-16
-1.00775e-16
-1.21922e-16
-1.16984e-16
-1.1971e-16
-1.18911e-16
-1.10352e-16
-1.20215e-16
-1.27773e-16
-1.18871e-16
-1.14529e-16
-1.08964e-16
-1.21695e-16
-1.22808e-16
-1.22824e-16
-1.23402e-16
-1.15159e-16
-1.19853e-16
-1.19897e-16
-1.26629e-16
-1.15298e-16
-1.09647e-16
-1.13619e-16
-1.25942e-16
-1.25613e-16
-1.22688e-16
-1.19304e-16
-1.14183e-16
-1.0678e-16
-1.11207e-16
-1.1441e-16
-1.20027e-16
-1.25118e-16
-1.0839e-16
-1.23976e-16
-1.2429e-16
-1.18687e-16
-1.13458e-16
-1.14931e-16
-1.20306e-16
-1.13756e-16
-9.96576e-17
-1.14993e-16
-1.22661e-16
-1.23465e-16
-1.18815e-16
-1.29828e-16
-1.28918e-16
-1.13118e-16
-1.24317e-16
-1.15577e-16
-1.13938e-16
-1.12624e-16
-1.16222e-16
-1.27326e-16
-1.2426e-16
-1.17042e-16
-1.06448e-16
-1.14114e-16
-1.14878e-16
-1.22175e-16
-1.21516e-16
-1.20045e-16
-1.18174e-16
-1.09465e-16
-1.18972e-16
-1.31513e-16
-1.24037e-16
-1.40077e-16
-1.20523e-16
-1.04537e-16
-1.06109e-16
-1.11037e-16
-1.14568e-16
-1.16627e-16
-1.17046e-16
-1.1739e-16
-1.17583e-16
-1.15631e-16
-1.14657e-16
-1.1688e-16
-1.31562e-16
-1.19532e-16
-1.22562e-16
-1.02454e-16
-1.2783e-16
-1.22216e-16
-1.24128e-16
-1.24113e-16
-1.11542e-16
-1.08715e-16
-1.21947e-16
-1.19232e-16
-1.11584e-16
-1.14538e-16
-1.10056e-16
-1.28134e-16
-1.26011e-16
-1.21735e-16
-1.16863e-16
-1.16099e-16
-1.26831e-16
-1.17115e-16
-1.16429e-16
-1.19437e-16
-1.28869e-16
-1.06564e-16
-1.11687e-16
-1.22669e-16
-1.11891e-16
-1.2393e-16
-1.20206e-16
-1.25084e-16
-1.23205e-16
-1.00312e-16
-1.17906e-16
-1.25182e-16
-1.15487e-16
-1.22348e-16
-1.19427e-16
-1.13346e-16
-1.26314e-16
-1.11625e-16
-1.08863e-16
-1.21322e-16
-1.19554e-16
-1.25355e-16
-1.11979e-16
-1.27757e-16
-1.16809e-16
-1.21462e-16
-1.16068e-16
-1.19565e-16
-1.24343e-16
-1.19487e-16
-1.0596e-16
-1.13874e-16
-1.09733e-16
-1.08085e-16
-1.16766e-16
-1.24263e-16
-1.18512e-16
-1.16383e-16
-1.23163e-16
-1.04973e-16
-1.16825e-16
-1.25777e-16
-1.25191e-16
-1.16653e-16
-1.2781e-16
-1.17168e-16
-1.13654e-16
-1.18234e-16
-1.13124e-16
-1.14795e-16
-1.12946e-16
-1.31018e-16
-1.29737e-16
-1.2039e-16
-1.35332e-16
-1.20487e-16
-1.06834e-16
-1.09625e-16
-1.18403e-16
-1.20381e-16
-1.24107e-16
-1.20796e-16
-1.20421e-16
-9.95793e-17
-1.09816e-16
-1.36241e-16
-1.22831e-16
-1.25532e-16
-1.18279e-16
-1.15784e-16
-1.10935e-16
-1.17278e-16
-1.17168e-16
-1.0327e-16
-1.29697e-16
-1.1123e-16
-1.11307e-16
-1.12238e-16
-1.23992e-16
-1.36651e-16
-1.16958e-16
-1.17108e-16
-1.01792e-16
-1.13291e-16
-1.34078e-16
-1.27127e-16
-1.15974e-16
-1.1882e-16
-1.18614e-16
-1.12078e-16
-2.32776e-16
-2.51344e-16
-2.39905e-16
-2.17797e-16
-2.0474e-16
-2.142e-16
-2.19244e-16
-2.23571e-16
-2.15703e-16
-2.0819e-16
-2.21925e-16
-2.07662e-16
-2.29382e-16
-2.27734e-16
-2.33653e-16
-2.45443e-16
-2.34797e-16
-2.15255e-16
-2.0517e-16
-2.08886e-16
-2.2698e-16
-2.18446e-16
-2.22115e-16
-2.17581e-16
-2.2656e-16
-2.16706e-16
-2.13945e-16
-2.24545e-16
-2.00565e-16
-2.14572e-16
-2.23963e-16
-2.23378e-16
-2.19867e-16
-2.14665e-16
-2.00898e-16
-2.2627e-16
-2.42049e-16
-2.1486e-16
-2.30486e-16
-2.20768e-16
-2.27819e-16
-2.08171e-16
-2.17761e-16
-2.15995e-16
-2.24587e-16
-2.26918e-16
-2.43426e-16
-2.3305e-16
-2.02666e-16
-2.01935e-16
-2.02893e-16
-2.33788e-16
-2.33059e-16
-2.343e-16
-1.97462e-16
-2.52025e-16
-2.51582e-16
-2.42522e-16
-2.23967e-16
-2.07662e-16
-2.14902e-16
-1.99707e-16
-2.1166e-16
-2.17951e-16
-2.08805e-16
-1.96233e-16
-2.36931e-16
-2.22163e-16
-2.20016e-16
-2.2509e-16
-2.14903e-16
-2.29536e-16
-2.14575e-16
-2.18584e-16
-2.18451e-16
-2.10752e-16
-2.35284e-16
-2.38437e-16
-2.33574e-16
-2.12376e-16
-2.25436e-16
-2.24626e-16
-2.19611e-16
-2.08215e-16
-2.1596e-16
-2.19043e-16
-2.16334e-16
-2.31535e-16
-2.09584e-16
-1.90801e-16
-2.17623e-16
-2.24298e-16
-2.27183e-16
-2.27371e-16
-2.10912e-16
-2.27062e-16
-2.09497e-16
-2.38151e-16
-2.54852e-16
-2.28668e-16
-2.11498e-16
-2.12807e-16
-2.33647e-16
-2.07181e-16
-2.10378e-16
-1.9873e-16
-2.12049e-16
-2.4005e-16
-2.29072e-16
-2.13069e-16
-2.2192e-16
-2.31996e-16
-2.32935e-16
-2.2194e-16
-2.11225e-16
-2.40273e-16
-2.19673e-16
-1.91541e-16
-2.22481e-16
-2.23687e-16
-2.07008e-16
-2.20777e-16
-2.30606e-16
-2.36949e-16
-2.51839e-16
-2.09946e-16
-2.16083e-16
-2.43175e-16
-1.93381e-16
-2.30411e-16
-2.26786e-16
-2.32833e-16
-2.03267e-16
-2.36517e-16
-2.21588e-16
-2.24957e-16
-2.29239e-16
-2.04027e-16
-2.02968e-16
-2.20036e-16
-2.26602e-16
-2.14901e-16
-2.34781e-16
-2.12716e-16
-2.3227e-16
-2.31471e-16
-2.26007e-16
-2.12963e-16
-2.15318e-16
-2.19814e-16
-2.14587e-16
-2.11694e-16
-2.15375e-16
-2.23956e-16
-2.05999e-16
-2.15425e-16
-2.11995e-16
-2.10551e-16
-2.14019e-16
-2.27657e-16
-2.32895e-16
-2.1641e-16
-2.259e-16
-2.3972e-16
-2.25217e-16
-2.14134e-16
-2.16247e-16
-2.19443e-16
-2.2747e-16
-2.25706e-16
-2.04583e-16
-2.24595e-16
-2.18607e-16
-2.27792e-16
-2.43315e-16
-2.10202e-16
-2.18186e-16
-2.15675e-16
-2.21488e-16
-2.23245e-16
-2.19158e-16
-2.18794e-16
-2.27978e-16
-2.26289e-16
-2.24342e-16
-2.21092e-16
-2.35855e-16
-2.16266e-16
-2.17509e-16
-2.43858e-16
-2.11321e-16
-2.24898e-16
-1.99059e-16
-2.05544e-16
-2.15893e-16
-2.15871e-16
-2.06255e-16
-2.39881e-16
-2.40557e-16
-1.98554e-16
-2.1261e-16
-2.11525e-16
-2.01489e-16
-2.23308e-16
-2.42714e-16
-2.24287e-16
-2.26554e-16
-2.25448e-16
-2.29583e-16
-2.31543e-16
-2.20429e-16
-2.02579e-16
-2.20069e-16
-2.30833e-16
-2.05835e-16
-2.20039e-16
-2.10164e-16
-2.31982e-16
-2.27289e-16
-2.32501e-16
-2.38285e-16
-2.13896e-16
-2.28271e-16
-2.13286e-16
-2.14404e-16
-2.0922e-16
-2.23787e-16
-2.19997e-16
-2.24741e-16
-2.12829e-16
-2.26302e-16
-2.47744e-16
-2.22472e-16
-2.25604e-16
-2.18522e-16
-2.14915e-16
-2.10813e-16
-2.19675e-16
-2.25029e-16
-2.10491e-16
-2.37646e-16
-2.18652e-16
-1.85749e-16
-2.0347e-16
-2.22596e-16
-2.29459e-16
-2.2506e-16
-2.36169e-16
-2.10806e-16
-2.22033e-16
-2.20306e-16
-2.14368e-16
-2.14993e-16
-2.33605e-16
-2.21641e-16
-2.14955e-16
-4.12196e-16
-4.23461e-16
-3.80397e-16
-3.75632e-16
-4.04721e-16
-4.52136e-16
-4.26215e-16
-4.105e-16
-4.19535e-16