# vtk DataFile Version 1.0
Electron Density - Current Sheet 
ASCII
DATASET STRUCTURED_POINTS
DIMENSIONS 256 128 1
ORIGIN 0 0 0
SPACING 0.15625 0.15625 1
POINT_DATA 32768
SCALARS rhoe float
LOOKUP_TABLE default
-1.9846e-18
-1.76478e-18
-1.78318e-18
-1.68574e-18
-1.91477e-18
-1.72301e-18
-1.72936e-18
-1.6455e-18
-1.76528e-18
-1.78002e-18
-1.65377e-18
-1.59419e-18
-1.90955e-18
-1.80684e-18
-1.77546e-18
-2.04892e-18
-1.94189e-18
-1.81294e-18
-2.02782e-18
-1.97604e-18
-2.14243e-18
-1.87156e-18
-2.0468e-18
-1.93829e-18
-1.69555e-18
-1.66692e-18
-1.66449e-18
-1.66107e-18
-1.50009e-18
-1.94969e-18
-2.20774e-18
-1.64549e-18
-1.84274e-18
-2.11121e-18
-1.78004e-18
-1.69229e-18
-1.63178e-18
-2.20343e-18
-1.94794e-18
-1.69973e-18
-1.74132e-18
-1.95828e-18
-1.97276e-18
-1.74977e-18
-1.57683e-18
-1.56487e-18
-1.59089e-18
-1.97715e-18
-1.86384e-18
-1.8593e-18
-1.76667e-18
-1.60805e-18
-2.04785e-18
-1.79425e-18
-1.79081e-18
-1.87158e-18
-1.9411e-18
-1.74367e-18
-1.65612e-18
-1.7858e-18
-1.76767e-18
-1.67417e-18
-1.80554e-18
-1.63202e-18
-1.91682e-18
-1.48802e-18
-1.55022e-18
-1.636e-18
-1.85052e-18
-2.14241e-18
-1.7483e-18
-1.73269e-18
-1.70789e-18
-1.81028e-18
-1.73289e-18
-1.55813e-18
-1.42718e-18
-1.85478e-18
-2.16499e-18
-1.86912e-18
-1.76784e-18
-1.66221e-18
-1.85423e-18
-1.83435e-18
-1.66619e-18
-1.88996e-18
-1.95449e-18
-1.6956e-18
-1.93154e-18
-1.63646e-18
-1.97553e-18
-1.81308e-18
-1.72164e-18
-1.91136e-18
-1.87006e-18
-1.6769e-18
-1.68545e-18
-1.80783e-18
-1.74266e-18
-1.63635e-18
-1.8082e-18
-1.72026e-18
-1.68863e-18
-1.8028e-18
-2.06901e-18
-1.82407e-18
-1.8824e-18
-1.79298e-18
-1.90502e-18
-1.82023e-18
-1.79746e-18
-1.72218e-18
-1.7092e-18
-1.78448e-18
-1.90281e-18
-2.01679e-18
-1.80214e-18
-1.68815e-18
-1.80332e-18
-1.80099e-18
-1.92092e-18
-1.79576e-18
-2.02365e-18
-2.20246e-18
-1.98574e-18
-1.82614e-18
-1.70455e-18
-1.71869e-18
-1.62948e-18
-1.58276e-18
-1.72897e-18
-1.96776e-18
-2.02255e-18
-1.70423e-18
-1.87301e-18
-1.8863e-18
-1.65822e-18
-1.91615e-18
-2.03188e-18
-1.90779e-18
-1.6804e-18
-1.70382e-18
-1.64514e-18
-1.54004e-18
-1.78141e-18
-1.72494e-18
-1.66367e-18
-1.80888e-18
-1.92853e-18
-1.75035e-18
-1.93684e-18
-1.98495e-18
-2.05971e-18
-1.89405e-18
-1.93782e-18
-1.88028e-18
-1.73386e-18
-2.07496e-18
-1.71495e-18
-1.61466e-18
-1.71164e-18
-1.86452e-18
-1.81405e-18
-2.01283e-18
-1.83597e-18
-1.83117e-18
-1.78776e-18
-1.84367e-18
-1.9994e-18
-1.51519e-18
-1.7307e-18
-1.94897e-18
-2.05353e-18
-1.80728e-18
-2.02023e-18
-1.93065e-18
-1.87222e-18
-1.54378e-18
-1.51815e-18
-1.89763e-18
-2.15551e-18
-2.04842e-18
-1.68482e-18
-1.98522e-18
-1.60947e-18
-1.75902e-18
-2.03958e-18
-1.80483e-18
-1.77107e-18
-1.79601e-18
-1.50186e-18
-1.78523e-18
-1.66956e-18
-1.43099e-18
-1.86055e-18
-1.56441e-18
-1.73145e-18
-1.88814e-18
-2.12526e-18
-1.8351e-18
-1.74863e-18
-1.89705e-18
-1.78408e-18
-1.62964e-18
-1.89236e-18
-1.88997e-18
-1.91974e-18
-1.83047e-18
-1.39401e-18
-1.7028e-18
-1.57198e-18
-1.72445e-18
-1.66132e-18
-1.90934e-18
-1.76872e-18
-1.76751e-18
-2.00435e-18
-2.12246e-18
-1.91774e-18
-1.77084e-18
-1.61012e-18
-1.70537e-18
-2.06759e-18
-2.26123e-18
-1.87724e-18
-1.61744e-18
-1.85851e-18
-1.76765e-18
-1.66486e-18
-1.65102e-18
-1.67316e-18
-1.9065e-18
-1.80204e-18
-1.95555e-18
-1.72732e-18
-1.80417e-18
-1.56097e-18
-1.9606e-18
-1.82396e-18
-1.82906e-18
-1.80629e-18
-1.78705e-18
-1.5508e-18
-1.90211e-18
-2.08689e-18
-1.56022e-18
-1.69004e-18
-2.14301e-18
-1.96405e-18
-1.93548e-18
-1.61216e-18
-1.61458e-18
-1.43712e-18
-2.07102e-18
-1.88511e-18
-1.96492e-18
-3.03349e-18
-2.70075e-18
-2.87334e-18
-2.61392e-18
-2.72195e-18
-2.65346e-18
-2.7379e-18
-3.09879e-18
-2.83934e-18
-3.07801e-18
-2.8179e-18
-2.80562e-18
-2.68095e-18
-2.69436e-18
-2.84322e-18
-2.76823e-18
-2.91373e-18
-2.95978e-18
-2.77978e-18
-2.91468e-18
-2.80677e-18
-2.57526e-18
-2.84673e-18
-2.67269e-18
-2.85537e-18
-2.65618e-18
-2.65704e-18
-2.62576e-18
-2.79821e-18
-3.12522e-18
-3.07615e-18
-2.79901e-18
-3.10522e-18
-2.93864e-18
-2.85208e-18
-2.57695e-18
-2.8472e-18
-3.1288e-18
-3.05171e-18
-2.93106e-18
-2.89543e-18
-2.81089e-18
-3.03229e-18
-2.83461e-18
-2.51204e-18
-2.77862e-18
-2.60817e-18
-2.8284e-18
-3.01204e-18
-2.68136e-18
-2.90712e-18
-2.81268e-18
-2.78968e-18
-2.86874e-18
-2.53036e-18
-2.79884e-18
-2.9562e-18
-2.97943e-18
-2.75576e-18
-3.13005e-18
-2.73957e-18
-3.01017e-18
-3.02505e-18
-2.71132e-18
-2.84116e-18
-2.39325e-18
-2.69444e-18
-3.05868e-18
-3.08154e-18
-3.10738e-18
-2.84072e-18
-2.66058e-18
-2.66827e-18
-2.71657e-18
-2.84856e-18
-2.7608e-18
-2.74323e-18
-2.77776e-18
-2.98631e-18
-2.7037e-18
-2.62938e-18
-2.82807e-18
-2.88329e-18
-2.92514e-18
-3.07326e-18
-2.88477e-18
-3.00223e-18
-2.91106e-18
-2.88699e-18
-2.80963e-18
-2.79152e-18
-2.9055e-18
-2.85414e-18
-2.89196e-18
-2.74267e-18
-2.59789e-18
-2.68662e-18
-2.92315e-18
-2.84305e-18
-2.72856e-18
-2.85626e-18
-2.91972e-18
-3.07265e-18
-2.88407e-18
-2.75942e-18
-2.78301e-18
-3.16712e-18
-2.90578e-18
-2.83664e-18
-2.68083e-18
-2.52733e-18
-2.78912e-18
-2.84703e-18
-2.46269e-18
-2.81254e-18
-3.0815e-18
-3.06098e-18
-2.65013e-18
-2.8385e-18
-2.82158e-18
-2.92766e-18
-2.96318e-18
-3.13769e-18
-3.14398e-18
-3.34183e-18
-2.63678e-18
-2.77507e-18
-2.60521e-18
-2.94011e-18
-2.53422e-18
-2.72432e-18
-3.07418e-18
-3.01977e-18
-2.76156e-18
-2.9285e-18
-3.09443e-18
-2.65416e-18
-2.83515e-18
-2.74864e-18
-2.7518e-18
-2.50785e-18
-2.68053e-18
-2.83282e-18
-2.88783e-18
-2.81673e-18
-2.80616e-18
-2.94314e-18
-3.05149e-18
-2.70271e-18
-2.84772e-18
-3.03542e-18
-2.72745e-18
-2.88001e-18
-2.62239e-18
-2.90682e-18
-3.38725e-18
-3.08361e-18
-3.20614e-18
-2.96749e-18
-2.71247e-18
-2.52005e-18
-3.0428e-18
-2.8812e-18
-3.11048e-18
-2.67773e-18
-2.76313e-18
-2.71195e-18
-2.84552e-18
-2.8444e-18
-2.76743e-18
-2.85865e-18
-2.87302e-18
-2.76059e-18
-2.92156e-18
-3.01232e-18
-2.74553e-18
-2.86923e-18
-2.56861e-18
-2.91574e-18
-2.79372e-18
-2.88498e-18
-2.92196e-18
-2.78647e-18
-2.91875e-18
-2.2577e-18
-2.60688e-18
-2.8564e-18
-2.53034e-18
-2.72992e-18
-2.85509e-18
-2.67804e-18
-2.7235e-18
-2.73984e-18
-2.89446e-18
-2.87772e-18
-2.86143e-18
-3.0151e-18
-2.97178e-18
-2.84383e-18
-2.59045e-18
-2.76202e-18
-3.0389e-18
-3.09489e-18
-3.00658e-18
-3.32276e-18
-2.9541e-18
-2.95385e-18
-2.74148e-18
-2.88608e-18
-2.94911e-18
-2.81195e-18
-2.79945e-18
-2.86618e-18
-2.98908e-18
-3.09789e-18
-2.90498e-18
-2.86678e-18
-3.0826e-18
-2.8058e-18
-2.73579e-18
-2.53764e-18
-2.55438e-18
-2.90785e-18
-3.10107e-18
-2.82126e-18
-2.52484e-18
-2.67524e-18
-2.58276e-18
-2.92376e-18
-3.04433e-18
-2.80843e-18
-2.64924e-18
-2.67874e-18
-2.72232e-18
-2.96391e-18
-3.01562e-18
-2.76809e-18
-2.77712e-18
-2.80154e-18
-2.99654e-18
-3.03435e-18
-2.88743e-18
-2.5898e-18
-2.74519e-18
-2.78639e-18
-2.50333e-18
-2.5511e-18
-2.91753e-18
-2.79565e-18
-3.01319e-18
-2.87202e-18
-2.7414e-18
-3.23685e-18
-3.26248e-18
-3.08793e-18
-2.8728e-18
-4.63909e-18
-5.46015e-18
-5.37234e-18
-5.12356e-18
-5.50785e-18
-4.77893e-18
-4.99633e-18
-5.57799e-18
-5.73315e-18
-5.62428e-18
-5.22278e-18
-5.33647e-18
-5.19821e-18
-4.97779e-18
-5.1623e-18
-5.80912e-18
-5.22016e-18
-4.81112e-18
-4.84691e-18
-5.64792e-18
-5.11095e-18
-4.86892e-18
-4.93267e-18
-5.05577e-18
-5.23187e-18
-5.05468e-18
-4.77611e-18
-5.00967e-18
-4.68347e-18
-5.12868e-18
-4.92555e-18
-5.60047e-18
-5.96808e-18
-4.99812e-18
-4.93363e-18
-4.782e-18
-5.4394e-18
-4.73123e-18
-5.32313e-18
-5.29731e-18
-4.92846e-18
-5.17187e-18
-5.12436e-18
-4.67016e-18
-5.35627e-18
-5.43718e-18
-5.10039e-18
-5.26997e-18
-4.85493e-18
-5.1653e-18
-5.09168e-18
-5.42091e-18
-5.83563e-18
-5.54039e-18
-5.02001e-18
-5.05014e-18
-4.57721e-18
-4.84313e-18
-4.7107e-18
-5.85661e-18
-5.18614e-18
-5.69608e-18
-5.28494e-18
-4.90774e-18
-4.91347e-18
-5.06781e-18
-5.49276e-18
-5.39022e-18
-5.44086e-18
-5.69175e-18
-4.85679e-18
-5.03733e-18
-5.06446e-18
-4.83828e-18
-4.7467e-18
-5.20092e-18
-5.59162e-18
-5.17943e-18
-5.71872e-18
-5.03748e-18
-5.66705e-18
-5.47188e-18
-5.03499e-18
-4.92748e-18
-5.11797e-18
-4.72734e-18
-4.99618e-18
-5.7754e-18
-5.27278e-18
-5.48135e-18
-5.28599e-18
-4.91133e-18
-4.96045e-18
-4.83428e-18
-5.04176e-18
-5.14472e-18
-5.09209e-18
-4.42969e-18
-5.0864e-18
-4.93255e-18
-4.47659e-18
-4.83488e-18
-5.08141e-18
-5.09383e-18
-5.17866e-18
-4.66438e-18
-5.10575e-18
-5.10512e-18
-5.4955e-18
-5.34295e-18
-5.3761e-18
-5.41108e-18
-5.03624e-18
-5.18925e-18
-4.83495e-18
-4.66477e-18
-5.07997e-18
-5.42033e-18
-5.26491e-18
-5.29527e-18
-5.69153e-18
-5.21502e-18
-5.2159e-18
-4.87756e-18
-5.35946e-18
-5.56088e-18
-5.16767e-18
-5.05667e-18
-4.75799e-18
-5.58836e-18
-5.51489e-18
-5.04144e-18
-5.07966e-18
-4.66115e-18
-4.97179e-18
-4.93653e-18
-5.09577e-18
-5.35748e-18
-5.24261e-18
-5.05925e-18
-5.29175e-18
-5.25532e-18
-5.26842e-18
-5.63328e-18
-5.17084e-18
-4.72021e-18
-4.65331e-18
-5.14222e-18
-4.41905e-18
-5.06837e-18
-5.33667e-18
-5.40211e-18
-5.19934e-18
-4.26783e-18
-4.29797e-18
-5.42664e-18
-5.31113e-18
-5.34128e-18
-5.12556e-18
-5.23019e-18
-4.98448e-18
-5.10151e-18
-5.51879e-18
-5.10126e-18
-5.01185e-18
-5.1619e-18
-4.96523e-18
-5.14088e-18
-5.05983e-18
-5.19813e-18
-4.80811e-18
-5.21928e-18
-5.46559e-18
-5.10981e-18
-4.82093e-18
-5.07922e-18
-5.29052e-18
-5.21937e-18
-5.52291e-18
-4.86549e-18
-5.32616e-18
-5.49305e-18
-5.11242e-18
-5.75307e-18
-5.20132e-18
-5.45151e-18
-4.85907e-18
-4.97857e-18
-4.9958e-18
-5.29608e-18
-5.25774e-18
-4.98619e-18
-5.5256e-18
-5.66514e-18
-5.3947e-18
-5.23327e-18
-5.28497e-18
-4.85711e-18
-5.36651e-18
-5.11686e-18
-5.10334e-18
-4.6489e-18
-5.66706e-18
-5.56411e-18
-5.50386e-18
-4.71984e-18
-5.06686e-18
-5.05972e-18
-5.24872e-18
-5.59711e-18
-5.23148e-18
-5.02472e-18
-4.8894e-18
-4.83556e-18
-5.45427e-18
-5.53701e-18
-4.70531e-18
-4.94122e-18
-4.31351e-18
-5.14194e-18
-4.62417e-18
-5.09225e-18
-4.93222e-18
-5.4682e-18
-5.27306e-18
-5.43443e-18
-5.60972e-18
-5.03408e-18
-5.67516e-18
-6.16895e-18
-5.41051e-18
-5.25175e-18
-4.928e-18
-4.97415e-18
-5.33902e-18
-5.10931e-18
-5.42541e-18
-4.86659e-18
-5.35542e-18
-5.17981e-18
-5.77614e-18
-5.88679e-18
-5.46028e-18
-5.22164e-18
-4.97234e-18
-4.80799e-18
-5.66496e-18
-4.67815e-18
-4.8439e-18
-5.46423e-18
-5.37687e-18
-5.00368e-18
-5.6575e-18
-5.33049e-18
-5.74739e-18
-4.89922e-18
-8.89361e-18
-9.83319e-18
-9.11184e-18
-9.92961e-18
-1.02172e-17
-9.51584e-18
-8.96043e-18
-9.38483e-18
-1.06082e-17
-9.85116e-18
-9.63206e-18
-9.31646e-18
-8.78045e-18
-9.50302e-18
-8.60682e-18
-1.01594e-17
-9.95542e-18
-9.74201e-18
-9.12379e-18
-1.11606e-17
-1.03829e-17
-1.00407e-17
-1.00591e-17
-9.8465e-18
-9.36248e-18
-9.25655e-18
-1.02837e-17
-1.01365e-17
-9.58323e-18
-9.47021e-18
-9.73172e-18
-1.03255e-17
-1.05492e-17
-1.05659e-17
-9.05979e-18
-7.96051e-18
-9.58305e-18
-8.358e-18
-1.01293e-17
-1.00975e-17
-1.04012e-17
-9.86193e-18
-1.10076e-17
-9.44935e-18
-9.76261e-18
-1.07792e-17
-9.4593e-18
-9.55434e-18
-9.74129e-18
-1.04987e-17
-8.77835e-18
-8.73916e-18
-1.00915e-17
-1.05199e-17
-9.69363e-18
-1.10213e-17
-9.45158e-18
-8.75824e-18
-9.00521e-18
-9.8105e-18
-8.96235e-18
-9.51001e-18
-9.5832e-18
-1.01959e-17
-1.0138e-17
-9.51084e-18
-9.01335e-18
-8.91188e-18
-1.03924e-17
-1.02194e-17
-9.03199e-18
-9.65316e-18
-1.05045e-17
-9.70471e-18
-9.39326e-18
-9.90887e-18
-9.3298e-18
-9.40929e-18
-9.76357e-18
-9.55676e-18
-9.42095e-18
-1.00513e-17
-1.03046e-17
-9.49499e-18
-1.03953e-17
-9.18139e-18
-8.43162e-18
-9.30051e-18
-9.53996e-18
-1.01618e-17
-1.10386e-17
-9.98172e-18
-9.35804e-18
-8.88002e-18
-9.98667e-18
-9.74456e-18
-8.93502e-18
-9.56245e-18
-1.06156e-17
-1.01094e-17
-9.36719e-18
-9.77842e-18
-8.74984e-18
-9.3843e-18
-1.00439e-17
-9.663e-18
-1.01963e-17
-9.37758e-18
-1.01355e-17
-1.03299e-17
-9.52031e-18
-9.93603e-18
-9.66492e-18
-8.97356e-18
-1.03367e-17
-1.05364e-17
-1.00599e-17
-1.03628e-17
-9.80009e-18
-9.32045e-18
-9.77572e-18
-9.1688e-18
-1.02406e-17
-9.60604e-18
-9.30412e-18
-8.91419e-18
-9.74461e-18
-9.71338e-18
-9.28174e-18
-1.03677e-17
-1.03484e-17
-9.14585e-18
-9.78823e-18
-9.7769e-18
-9.60918e-18
-1.01318e-17
-9.23511e-18
-9.37009e-18
-1.11285e-17
-1.0435e-17
-1.01269e-17
-8.71751e-18
-1.07636e-17
-9.19309e-18
-8.90898e-18
-8.34401e-18
-9.31616e-18
-9.28441e-18
-9.07586e-18
-1.02953e-17
-9.45964e-18
-9.69925e-18
-1.0298e-17
-9.94059e-18
-8.61417e-18
-9.0733e-18
-9.90662e-18
-9.83752e-18
-8.99986e-18
-9.75335e-18
-1.01643e-17
-9.87246e-18
-9.71396e-18
-9.8145e-18
-1.0259e-17
-9.11064e-18
-8.99553e-18
-9.86708e-18
-1.07934e-17
-1.06099e-17
-9.87477e-18
-1.06493e-17
-1.08946e-17
-9.4712e-18
-9.70063e-18
-9.20599e-18
-9.4627e-18
-8.91598e-18
-1.00529e-17
-9.53337e-18
-9.43063e-18
-1.07078e-17
-9.59483e-18
-1.0605e-17
-8.96108e-18
-1.05889e-17
-1.04723e-17
-9.3399e-18
-9.3541e-18
-8.70195e-18
-9.90471e-18
-9.66463e-18
-9.19568e-18
-1.03042e-17
-1.01399e-17
-9.9011e-18
-1.01439e-17
-8.85036e-18
-1.02581e-17
-1.0226e-17
-9.92129e-18
-9.40856e-18
-9.97336e-18
-9.90561e-18
-9.31651e-18
-8.97035e-18
-9.92784e-18
-9.46266e-18
-1.05404e-17
-9.90812e-18
-9.76014e-18
-1.01915e-17
-9.65193e-18
-9.55094e-18
-1.0054e-17
-1.0471e-17
-9.09901e-18
-9.01491e-18
-9.04033e-18
-1.03734e-17
-9.82453e-18
-9.58812e-18
-9.54713e-18
-1.04189e-17
-9.5334e-18
-1.00662e-17
-9.86113e-18
-9.57734e-18
-1.03605e-17
-1.00134e-17
-9.56637e-18
-1.03319e-17
-1.00086e-17
-1.01442e-17
-8.28754e-18
-8.87498e-18
-9.9415e-18
-9.38033e-18
-9.95553e-18
-9.25489e-18
-9.85267e-18
-1.03637e-17
-9.85194e-18
-9.08408e-18
-8.90806e-18
-9.07367e-18
-1.00656e-17
-1.01797e-17
-9.93619e-18
-1.05526e-17
-1.01678e-17
-9.52425e-18
-8.94709e-18
-1.02004e-17
-1.03144e-17
-9.16854e-18
-1.90949e-17
-1.84105e-17
-1.74081e-17
-1.73011e-17
-2.03952e-17
-1.98808e-17
-1.84224e-17
-1.95191e-17
-1.65476e-17
-1.68161e-17
-1.83012e-17
-1.83548e-17
-1.78884e-17
-1.74277e-17
-1.70104e-17
-1.88737e-17
-2.0271e-17
-1.87478e-17
-1.8789e-17
-1.82714e-17
-1.81441e-17
-1.95198e-17
-1.81477e-17
-1.97522e-17
-1.88564e-17
-1.74336e-17
-1.75155e-17
-1.81509e-17
-1.8637e-17
-1.9208e-17
-1.69479e-17
-1.85486e-17
-1.90557e-17
-1.86428e-17
-1.82927e-17
-1.82612e-17
-1.76267e-17
-1.64232e-17
-1.7341e-17
-1.73171e-17
-1.84974e-17
-1.82141e-17
-1.85675e-17
-1.66335e-17
-1.88217e-17
-1.86145e-17
-1.76087e-17
-1.91588e-17
-1.85789e-17
-1.64853e-17
-1.72584e-17
-1.98164e-17
-1.79655e-17
-1.90295e-17
-1.68375e-17
-1.81131e-17
-1.78764e-17
-1.78977e-17
-1.7763e-17
-1.84662e-17
-1.78364e-17
-1.72067e-17
-1.90915e-17
-1.84188e-17
-1.98458e-17
-1.83065e-17
-1.74017e-17
-1.83173e-17
-1.85813e-17
-1.61546e-17
-1.84129e-17
-1.99839e-17
-1.76884e-17
-1.65342e-17
-1.7653e-17
-1.85133e-17
-1.89863e-17
-1.82835e-17
-1.84513e-17
-1.80769e-17
-1.78706e-17
-1.84516e-17
-1.8385e-17
-1.88689e-17
-2.11835e-17
-1.87967e-17
-2.05576e-17
-1.85341e-17
-1.98067e-17
-1.88561e-17
-1.90936e-17
-1.85262e-17
-1.64624e-17
-1.86602e-17
-2.00434e-17
-1.6213e-17
-1.62315e-17
-1.73967e-17
-1.76157e-17
-1.96964e-17
-1.7004e-17
-1.76054e-17
-1.78689e-17
-1.88609e-17
-2.05182e-17
-1.91827e-17
-2.02935e-17
-1.92595e-17
-1.752e-17
-1.92918e-17
-1.51477e-17
-1.84024e-17
-1.71246e-17
-1.65384e-17
-1.64855e-17
-1.92914e-17
-1.83894e-17
-1.86155e-17
-1.88683e-17
-1.85109e-17
-1.83543e-17
-1.84774e-17
-2.04664e-17
-1.68723e-17
-1.56459e-17
-1.70465e-17
-1.6887e-17
-1.82114e-17
-1.93588e-17
-2.05048e-17
-2.04634e-17
-1.82627e-17
-1.78308e-17
-1.63377e-17
-1.71971e-17
-1.76483e-17
-1.75012e-17
-1.76676e-17
-2.00518e-17
-1.96718e-17
-1.88619e-17
-1.8407e-17
-1.83443e-17
-1.91167e-17
-1.65329e-17
-1.86229e-17
-1.70918e-17
-1.78356e-17
-1.68114e-17
-1.74535e-17
-1.86753e-17
-2.05883e-17
-2.18231e-17
-1.72187e-17
-1.63636e-17
-1.62633e-17
-1.72251e-17
-1.93572e-17
-1.76445e-17
-1.89179e-17
-2.04416e-17
-1.99113e-17
-1.65168e-17
-1.72693e-17
-2.06768e-17
-1.78365e-17
-1.96724e-17
-1.91678e-17
-1.80971e-17
-1.90336e-17
-1.81667e-17
-1.73114e-17
-1.69703e-17
-1.96915e-17
-1.94385e-17
-1.81511e-17
-1.70039e-17
-1.79254e-17
-1.83897e-17
-1.82997e-17
-1.75507e-17
-1.92899e-17
-1.7664e-17
-1.88931e-17
-1.98443e-17
-1.82339e-17
-1.80135e-17
-1.8192e-17
-1.6495e-17
-1.73966e-17
-1.80866e-17
-1.78801e-17
-1.83179e-17
-1.84074e-17
-1.74796e-17
-1.78299e-17
-1.95881e-17
-1.66617e-17
-1.8785e-17
-1.81842e-17
-1.65538e-17
-1.92146e-17
-1.89203e-17
-2.12054e-17
-2.1083e-17
-1.87151e-17
-1.85681e-17
-1.85049e-17
-1.66048e-17
-1.68823e-17
-1.87553e-17
-1.72644e-17
-1.78863e-17
-1.89896e-17
-1.79193e-17
-1.85715e-17
-1.69505e-17
-1.81822e-17
-1.77335e-17
-2.02971e-17
-2.02957e-17
-1.79199e-17
-1.63602e-17
-1.65093e-17
-1.82122e-17
-1.74177e-17
-1.91524e-17
-1.87619e-17
-1.80391e-17
-1.81858e-17
-1.75264e-17
-1.86349e-17
-2.00883e-17
-1.87985e-17
-1.70023e-17
-1.6495e-17
-1.76704e-17
-1.93362e-17
-1.85628e-17
-1.58845e-17
-1.70598e-17
-1.87759e-17
-2.08588e-17
-1.8946e-17
-1.79732e-17
-1.63663e-17
-1.75123e-17
-1.83467e-17
-1.85714e-17
-1.78414e-17
-1.69515e-17
-1.69558e-17
-1.92352e-17
-2.00811e-17
-2.01913e-17
-1.96473e-17
-3.28807e-17
-3.59486e-17
-3.24421e-17
-3.48399e-17
-3.46639e-17
-3.63153e-17
-3.6904e-17
-3.54499e-17
-3.2423e-17
-3.08247e-17
-3.20454e-17
-3.52762e-17
-3.01863e-17
-3.10556e-17
-3.14015e-17
-3.22584e-17
-3.7522e-17
-3.70636e-17
-3.59115e-17
-3.43344e-17
-3.60484e-17
-3.43383e-17
-3.43299e-17
-3.45452e-17
-3.01027e-17
-2.82397e-17
-3.22591e-17
-3.51232e-17
-3.70481e-17
-3.73488e-17
-3.79527e-17
-3.49223e-17
-3.2733e-17
-3.07022e-17
-3.46122e-17
-3.27029e-17
-3.48548e-17
-3.44388e-17
-3.3111e-17
-3.66238e-17
-3.54958e-17
-2.87459e-17
-3.23131e-17
-3.42219e-17
-3.1871e-17
-3.50062e-17
-3.44194e-17
-3.56897e-17
-3.34116e-17
-3.23528e-17
-3.39443e-17
-3.54986e-17
-3.42309e-17
-3.25359e-17
-3.13826e-17
-3.35617e-17
-3.70621e-17
-3.31625e-17
-3.60201e-17
-3.34918e-17
-3.21336e-17
-3.34788e-17
-3.59759e-17
-3.34893e-17
-3.73276e-17
-3.2041e-17
-3.43749e-17
-3.37281e-17
-3.45287e-17
-2.95588e-17
-3.49262e-17
-3.3383e-17
-3.47853e-17
-3.42391e-17
-3.41595e-17
-3.41822e-17
-3.64837e-17
-3.52569e-17
-3.83734e-17
-3.39118e-17
-3.41856e-17
-3.37572e-17
-3.34375e-17
-3.39464e-17
-3.60215e-17
-3.49481e-17
-3.22295e-17
-3.23234e-17
-3.08884e-17
-3.60875e-17
-3.40774e-17
-3.4554e-17
-3.49366e-17
-3.58875e-17
-3.49264e-17
-3.52376e-17
-3.10462e-17
-3.14007e-17
-3.31894e-17
-3.33056e-17
-2.88293e-17
-3.29634e-17
-2.97767e-17
-3.65018e-17
-3.4594e-17
-3.50928e-17
-3.41115e-17
-3.77276e-17
-3.49524e-17
-3.15602e-17
-3.30547e-17
-3.45358e-17
-3.6961e-17
-3.49337e-17
-3.28926e-17
-3.43027e-17
-3.35974e-17
-3.22518e-17
-3.40328e-17
-3.18959e-17
-3.17468e-17
-3.11495e-17
-3.25585e-17
-3.23536e-17
-3.40051e-17
-3.56322e-17
-3.4955e-17
-3.77505e-17
-3.39256e-17
-3.55672e-17
-3.49104e-17
-3.26022e-17
-3.2695e-17
-2.99505e-17
-2.94997e-17
-3.10485e-17
-3.08729e-17
-3.37298e-17
-3.48491e-17
-3.3201e-17
-3.09711e-17
-3.28841e-17
-3.65622e-17
-3.22886e-17
-3.32763e-17
-3.4287e-17
-3.49467e-17
-3.51283e-17
-3.26237e-17
-3.26372e-17
-3.62545e-17
-3.4315e-17
-3.73921e-17
-3.22398e-17
-3.42416e-17
-3.30851e-17
-2.99373e-17
-3.715e-17
-3.38692e-17
-3.61846e-17
-3.33946e-17
-3.43042e-17
-3.09436e-17
-3.12776e-17
-3.71076e-17
-3.49489e-17
-3.2791e-17
-3.16938e-17
-3.47898e-17
-3.56397e-17
-3.50781e-17
-3.29188e-17
-3.06373e-17
-3.83597e-17
-3.29407e-17
-3.05559e-17
-3.65185e-17
-3.42669e-17
-3.57942e-17
-3.39883e-17
-3.11081e-17
-3.35568e-17
-3.20141e-17
-3.26044e-17
-3.25656e-17
-3.43358e-17
-3.44749e-17
-3.75876e-17
-3.1379e-17
-3.18069e-17
-3.35933e-17
-3.40709e-17
-3.40265e-17
-3.49571e-17
-3.46031e-17
-3.08233e-17
-3.61889e-17
-3.45053e-17
-3.6356e-17
-3.29524e-17
-2.95133e-17
-3.40264e-17
-3.47375e-17
-3.21178e-17
-3.4901e-17
-3.18156e-17
-2.93758e-17
-3.5691e-17
-3.38737e-17
-3.60968e-17
-3.56556e-17
-3.11139e-17
-3.30283e-17
-3.53806e-17
-3.54145e-17
-3.78564e-17
-3.58467e-17
-3.64147e-17
-3.45006e-17
-3.50688e-17
-3.73431e-17
-3.50831e-17
-3.19904e-17
-3.21351e-17
-3.42895e-17
-3.31501e-17
-3.62602e-17
-3.4299e-17
-3.24385e-17
-3.16648e-17
-3.09994e-17
-3.5092e-17
-3.31839e-17
-3.47232e-17
-3.52581e-17
-3.43323e-17
-3.16279e-17
-3.45809e-17
-3.80985e-17
-3.76007e-17
-3.31655e-17
-3.42684e-17
-3.13994e-17
-3.42115e-17
-3.46661e-17
-3.20037e-17
-3.52021e-17
-3.22969e-17
-3.41732e-17
-3.34434e-17
-3.34801e-17
-3.28603e-17
-3.34298e-17
-3.29962e-17
-3.78574e-17
-3.45778e-17
-6.37102e-17
-6.15712e-17
-5.80137e-17
-6.27152e-17
-6.19231e-17
-5.5273e-17
-6.19073e-17
-6.72737e-17
-7.05604e-17
-6.59461e-17
-6.04043e-17
-6.53319e-17
-5.8981e-17
-5.94947e-17
-6.43113e-17
-6.36885e-17
-6.1512e-17
-6.49991e-17
-7.07086e-17
-6.26296e-17
-6.70339e-17
-6.08809e-17
-5.93309e-17
-6.20627e-17
-6.59634e-17
-6.49376e-17
-5.95937e-17
-6.45973e-17
-6.18889e-17
-6.18674e-17
-7.20557e-17
-6.33848e-17
-6.13002e-17
-5.42629e-17
-6.17176e-17
-6.69693e-17
-6.17728e-17
-6.02476e-17
-5.77378e-17
-6.84617e-17
-6.48e-17
-6.11743e-17
-6.55726e-17
-6.48713e-17
-6.26333e-17
-6.07407e-17
-6.55992e-17
-6.2411e-17
-6.48272e-17
-5.94148e-17
-6.00459e-17
-6.65225e-17
-6.63739e-17
-6.70626e-17
-6.40233e-17
-6.57041e-17
-6.94659e-17
-6.63234e-17
-5.89548e-17
-6.45239e-17
-5.88964e-17
-5.58394e-17
-6.52008e-17
-6.25506e-17
-6.76725e-17
-6.48663e-17
-6.66793e-17
-5.71169e-17
-6.25037e-17
-6.0893e-17
-6.76354e-17
-6.5053e-17
-6.72553e-17
-6.11029e-17
-6.18698e-17
-6.17238e-17
-5.99161e-17
-5.94318e-17
-6.47039e-17
-6.46364e-17
-5.77643e-17
-6.2156e-17
-6.74121e-17
-5.67907e-17
-6.67758e-17
-7.05226e-17
-6.08677e-17
-5.78972e-17
-5.9419e-17
-5.97377e-17
-6.27764e-17
-6.78486e-17
-6.4428e-17
-6.75787e-17
-5.54202e-17
-5.81502e-17
-6.82035e-17
-6.76268e-17
-6.76764e-17
-6.21794e-17
-6.69851e-17
-6.54898e-17
-5.94154e-17
-6.52441e-17
-6.0876e-17
-6.251e-17
-7.17166e-17
-6.49528e-17
-6.25537e-17
-6.69512e-17
-6.8693e-17
-6.17101e-17
-5.77079e-17
-5.68522e-17
-6.21556e-17
-6.53231e-17
-6.37416e-17
-6.46478e-17
-6.19932e-17
-6.40793e-17
-6.13899e-17
-6.09866e-17
-6.44223e-17
-6.62941e-17
-7.03336e-17
-6.55223e-17
-7.07563e-17
-6.1153e-17
-6.14739e-17
-6.41748e-17
-6.69767e-17
-6.42984e-17
-6.12191e-17
-6.68722e-17
-5.86017e-17
-6.0227e-17
-6.56259e-17
-6.3166e-17
-5.99193e-17
-6.08283e-17
-6.06577e-17
-6.383e-17
-6.61824e-17
-6.85059e-17
-6.65458e-17
-6.27651e-17
-6.3905e-17
-6.7503e-17
-6.58183e-17
-6.38374e-17
-6.11409e-17
-6.32691e-17
-6.71248e-17
-6.41876e-17
-5.64576e-17
-6.17769e-17
-6.04773e-17
-6.11264e-17
-6.74182e-17
-5.98774e-17
-6.65773e-17
-6.53281e-17
-6.20611e-17
-5.65211e-17
-6.39504e-17
-6.45379e-17
-6.64956e-17
-6.37947e-17
-6.03753e-17
-7.02107e-17
-6.04212e-17
-6.45699e-17
-6.89118e-17
-6.76245e-17
-6.08259e-17
-6.20244e-17
-6.74915e-17
-6.28327e-17
-6.1964e-17
-6.30161e-17
-6.42573e-17
-6.72588e-17
-6.11494e-17
-6.12649e-17
-6.11613e-17
-6.36488e-17
-6.23966e-17
-6.66793e-17
-6.43186e-17
-6.04677e-17
-5.85073e-17
-6.65259e-17
-6.99136e-17
-6.29841e-17
-6.83745e-17
-7.08704e-17
-6.28298e-17
-5.56777e-17
-5.99019e-17
-6.13465e-17
-5.99765e-17
-6.42129e-17
-6.25624e-17
-5.7933e-17
-6.62776e-17
-6.46197e-17
-6.51463e-17
-6.41337e-17
-6.62386e-17
-5.68956e-17
-6.02137e-17
-6.11834e-17
-6.67779e-17
-6.54434e-17
-5.47024e-17
-6.36751e-17
-6.36829e-17
-6.58585e-17
-6.13735e-17
-5.34108e-17
-6.3633e-17
-6.85839e-17
-6.24584e-17
-6.61571e-17
-5.76741e-17
-6.12812e-17
-6.52244e-17
-5.89843e-17
-6.34967e-17
-6.12448e-17
-6.69283e-17
-6.54767e-17
-6.14077e-17
-7.03671e-17
-6.32777e-17
-6.20929e-17
-5.93092e-17
-6.40463e-17
-6.19383e-17
-6.48932e-17
-6.19476e-17
-6.0979e-17
-5.67586e-17
-5.96597e-17
-5.9741e-17
-6.12644e-17
-6.00444e-17
-5.59568e-17
-6.72371e-17
-6.52895e-17
-6.48209e-17
-6.12132e-17
-6.67655e-17
-5.92293e-17
-6.2889e-17
-6.51912e-17
-1.29259e-16
-1.22527e-16
-1.22766e-16
-1.1777e-16
-1.24884e-16
-1.18228e-16
-1.18223e-16
-1.04271e-16
-1.2064e-16
-1.31289e-16
-1.26913e-16
-1.14109e-16
-1.07768e-16
-1.02513e-16
-1.18224e-16
-1.29402e-16
-1.21724e-16
-1.23158e-16
-1.14299e-16
-1.0707e-16
-1.16008e-16
-1.20462e-16
-1.16959e-16
-1.33214e-16
-1.17957e-16
-1.24737e-16
-1.25074e-16
-1.23888e-16
-1.11432e-16
-1.04383e-16
-1.14054e-16
-1.14025e-16
-1.11113e-16
-1.06503e-16
-1.17009e-16
-1.25231e-16
-1.36144e-16
-1.1554e-16
-1.14342e-16
-1.28441e-16
-1.27405e-16
-1.28478e-16
-1.24125e-16
-1.16835e-16
-1.2284e-16
-1.15689e-16
-1.22933e-16
-1.11555e-16
-1.06386e-16
-1.19791e-16
-1.28586e-16
-1.23141e-16
-1.10698e-16
-1.2399e-16
-1.15621e-16
-1.24145e-16
-1.2874e-16
-1.2076e-16
-1.09362e-16
-1.13307e-16
-1.02274e-16
-1.06894e-16
-1.09066e-16
-1.14111e-16
-1.15398e-16
-1.15028e-16
-1.25989e-16
-1.08114e-16
-1.19468e-16
-1.29168e-16
-1.11403e-16
-1.24636e-16
-1.19809e-16
-1.14795e-16
-1.2414e-16
-1.1283e-16
-1.21262e-16
-1.08661e-16
-1.10785e-16
-1.18166e-16
-1.21344e-16
-1.1658e-16
-1.20777e-16
-1.05721e-16
-1.16614e-16
-1.177e-16
-1.24142e-16
-1.21162e-16
-1.20652e-16
-1.03982e-16
-1.14601e-16
-1.22597e-16
-1.22924e-16
-1.18269e-16
-1.14897e-16
-1.04716e-16
-1.27767e-16
-1.19765e-16
-1.11071e-16
-1.09704e-16
-1.19578e-16
-1.13921e-16
-1.12947e-16
-1.1726e-16
-1.06535e-16
-1.0676e-16
-1.28648e-16
-1.23862e-16
-1.22283e-16
-1.26098e-16
-1.22817e-16
-1.23911e-16
-1.14304e-16
-1.09063e-16
-1.09538e-16
-1.16613e-16
-1.21966e-16
-1.21324e-16
-1.15019e-16
-1.19946e-16
-1.27482e-16
-1.22234e-16
-1.30452e-16
-1.27055e-16
-1.03719e-16
-1.2807e-16
-1.33318e-16
-1.15705e-16
-1.19064e-16
-1.19024e-16
-1.15193e-16
-1.33605e-16
-1.26204e-16
-1.14283e-16
-1.12737e-16
-1.11686e-16
-1.1462e-16
-1.04973e-16
-1.11259e-16
-1.22536e-16
-1.19621e-16
-1.16917e-16
-1.25673e-16
-1.30731e-16
-1.20045e-16
-1.05236e-16
-1.19048e-16
-1.1867e-16
-1.23396e-16
-1.274e-16
-1.24202e-16
-1.18506e-16
-1.22485e-16
-1.13246e-16
-1.1318e-16
-1.12133e-16
-1.11817e-16
-1.11085e-16
-1.35658e-16
-1.3766e-16
-1.16917e-16
-1.16849e-16
-1.19328e-16
-1.19349e-16
-1.26766e-16
-1.06954e-16
-1.16396e-16
-1.12587e-16
-1.14811e-16
-1.14091e-16
-1.09383e-16
-1.15531e-16
-1.20563e-16
-1.13318e-16
-1.25585e-16
-1.18522e-16
-1.11135e-16
-1.11865e-16
-1.23924e-16
-1.14427e-16
-1.33409e-16
-1.29408e-16
-1.14449e-16
-1.06548e-16
-1.19281e-16
-1.20621e-16
-1.13272e-16
-1.11619e-16
-1.21117e-16
-1.23647e-16
-1.31224e-16
-1.34077e-16
-1.2865e-16
-1.14609e-16
-1.05089e-16
-1.14411e-16
-1.09212e-16
-1.03232e-16
-1.18939e-16
-1.15255e-16
-1.02936e-16
-1.1507e-16
-1.15591e-16
-1.10054e-16
-1.10949e-16
-1.18708e-16
-1.20125e-16
-1.27405e-16
-1.29417e-16
-1.13801e-16
-1.08306e-16
-1.09752e-16
-1.18094e-16
-1.3639e-16
-1.09976e-16
-1.1663e-16
-1.07466e-16
-1.27882e-16
-1.31e-16
-1.20003e-16
-1.23746e-16
-1.18311e-16
-1.20943e-16
-1.23299e-16
-1.12626e-16
-1.24065e-16
-1.14319e-16
-1.19186e-16
-1.17948e-16
-1.27449e-16
-1.16843e-16
-1.22086e-16
-1.28029e-16
-1.26959e-16
-1.22074e-16
-1.15554e-16
-1.18055e-16
-1.18502e-16
-1.20606e-16
-1.13292e-16
-1.18182e-16
-1.1173e-16
-1.11733e-16
-1.07615e-16
-1.28691e-16
-1.20983e-16
-1.10544e-16
-1.02009e-16
-1.13743e-16
-1.25802e-16
-1.27207e-16
-1.0924e-16
-1.15411e-16
-1.16878e-16
-1.16521e-16
-1.24269e-16
-2.25266e-16
-2.15653e-16
-2.10411e-16
-2.27388e-16
-2.31429e-16
-2.44652e-16
-2.22821e-16
-1.95552e-16
-2.23723e-16
-2.38602e-16
-2.29843e-16
-2.02503e-16
-2.0944e-16
-2.40091e-16
-2.27706e-16
-2.49876e-16
-2.20642e-16
-2.12569e-16
-2.2673e-16
-2.19223e-16
-2.06138e-16
-2.0761e-16
-2.29016e-16
-2.15467e-16
-2.10953e-16
-2.04862e-16
-2.25846e-16
-2.12231e-16
-2.11829e-16
-2.11336e-16
-2.25686e-16
-2.12487e-16
-2.18848e-16
-2.18344e-16
-2.16465e-16
-2.2936e-16
-2.2258e-16
-2.09982e-16
-2.3359e-16
-2.18767e-16
-2.28129e-16
-2.31536e-16
-2.39586e-16
-2.12563e-16
-2.14171e-16
-2.36215e-16
-2.48868e-16
-1.94648e-16
-2.14964e-16
-2.12829e-16
-2.23359e-16
-2.36546e-16
-2.28994e-16
-2.43856e-16
-2.17878e-16
-2.35099e-16
-2.56238e-16
-2.25605e-16
-2.09366e-16
-2.01899e-16
-2.0316e-16
-2.08204e-16
-2.09844e-16
-2.16411e-16
-2.13157e-16
-2.04265e-16
-1.99926e-16
-2.28865e-16
-2.56667e-16
-2.42237e-16
-2.07943e-16
-2.2602e-16
-2.21816e-16
-2.26788e-16
-2.38663e-16
-2.02301e-16
-2.24624e-16
-2.31577e-16
-2.30797e-16
-2.22234e-16
-2.2559e-16
-2.18327e-16
-2.29844e-16
-2.15549e-16
-2.19242e-16
-2.12754e-16
-2.32026e-16
-2.31198e-16
-2.12129e-16
-1.87597e-16
-2.15705e-16
-2.29369e-16
-2.41328e-16
-2.26018e-16
-2.25595e-16
-2.16862e-16
-2.28781e-16
-2.47021e-16
-2.20595e-16
-2.1118e-16
-2.28709e-16
-2.19415e-16
-2.02873e-16
-2.14976e-16
-2.09733e-16
-1.97348e-16
-2.29114e-16
-2.29765e-16
-2.37355e-16
-2.21887e-16
-2.20144e-16
-2.27443e-16
-2.10155e-16
-2.21431e-16
-1.95791e-16
-2.07448e-16
-2.1371e-16
-2.28239e-16
-2.16793e-16
-2.06033e-16
-1.89061e-16
-2.1248e-16
-2.2512e-16
-2.19983e-16
-2.16151e-16
-2.26525e-16
-2.59214e-16
-2.173e-16
-2.24591e-16
-2.37955e-16
-2.2192e-16
-2.41375e-16
-2.20811e-16
-2.25698e-16
-2.34005e-16
-2.07686e-16
-2.05576e-16
-2.23775e-16
-2.05537e-16
-2.25029e-16
-2.16474e-16
-2.37383e-16
-2.29258e-16
-2.14323e-16
-2.12929e-16
-2.19222e-16
-2.12316e-16
-2.16089e-16
-2.44171e-16
-2.11572e-16
-2.06586e-16
-2.2772e-16
-2.06457e-16
-2.06618e-16
-2.11803e-16
-1.92404e-16
-2.13135e-16
-2.02836e-16
-2.13856e-16
-2.40538e-16
-2.36853e-16
-2.10372e-16
-2.16979e-16
-2.35277e-16
-2.43101e-16
-2.32658e-16
-2.16981e-16
-2.266e-16
-2.24242e-16
-2.0014e-16
-2.17949e-16
-2.41152e-16
-2.54188e-16
-2.3205e-16
-2.2684e-16
-2.02607e-16
-2.0548e-16
-2.34345e-16
-2.35762e-16
-2.0528e-16
-2.03407e-16
-2.45349e-16
-2.33566e-16
-2.29237e-16
-2.18333e-16
-2.33979e-16
-2.19519e-16
-2.24728e-16
-2.29686e-16
-2.257e-16
-2.24205e-16
-2.35795e-16
-1.8925e-16
-1.88689e-16
-2.00597e-16
-2.20151e-16
-2.07161e-16
-2.13706e-16
-2.2609e-16
-2.14927e-16
-2.06963e-16
-2.14501e-16
-1.89958e-16
-2.11766e-16
-2.18619e-16
-2.28051e-16
-2.31125e-16
-2.21988e-16
-2.3108e-16
-2.35739e-16
-2.30119e-16
-2.11081e-16
-2.1336e-16
-2.4147e-16
-2.13444e-16
-2.0753e-16
-2.45559e-16
-2.45439e-16
-2.56511e-16
-2.31214e-16
-2.19771e-16
-2.27906e-16
-2.36293e-16
-1.94353e-16
-2.20915e-16
-2.34882e-16
-2.06063e-16
-2.24248e-16
-2.30012e-16
-2.3303e-16
-2.20448e-16
-2.219e-16
-2.19138e-16
-2.27216e-16
-2.11908e-16
-2.38869e-16
-2.19328e-16
-2.2319e-16
-2.30081e-16
-1.98132e-16
-2.14531e-16
-2.02478e-16
-2.24176e-16
-1.93676e-16
-2.18864e-16
-2.29605e-16
-2.20558e-16
-2.15813e-16
-1.98376e-16
-2.48028e-16
-2.30728e-16
-2.16549e-16
-2.19132e-16
-2.45475e-16
-2.29783e-16
-2.3216e-16
-3.75893e-16
-4.02208e-16
-4.24317e-16
-4.08397e-16
-3.76987e-16
-4.13206e-16