# vtk DataFile Version 1.0
Electron Density - Current Sheet 
ASCII
DATASET STRUCTURED_POINTS
DIMENSIONS 256 128 1
ORIGIN 0 0 0
SPACING 0.15625 0.15625 1
POINT_DATA 32768
SCALARS rhoe float
LOOKUP_TABLE default
-1.93201e-18
-2.17712e-18
-2.04865e-18
-1.72212e-18
-1.47065e-18
-1.77793e-18
-1.86132e-18
-1.69842e-18
-2.12611e-18
-1.79632e-18
-1.77031e-18
-1.55404e-18
-1.75e-18
-1.7986e-18
-1.79823e-18
-1.93333e-18
-1.85982e-18
-2.02271e-18
-1.86213e-18
-1.57318e-18
-1.89279e-18
-2.07405e-18
-1.90666e-18
-1.93999e-18
-1.67413e-18
-1.65241e-18
-1.90239e-18
-1.65516e-18
-1.58813e-18
-1.98248e-18
-2.22683e-18
-1.62571e-18
-1.53185e-18
-1.84887e-18
-2.01254e-18
-2.10409e-18
-1.88262e-18
-1.90854e-18
-2.16605e-18
-1.98747e-18
-1.64176e-18
-1.49445e-18
-1.98217e-18
-1.96227e-18
-1.97352e-18
-2.04224e-18
-1.80306e-18
-1.7958e-18
-1.7923e-18
-1.63417e-18
-1.80973e-18
-1.8026e-18
-1.61111e-18
-1.76016e-18
-1.86693e-18
-2.46177e-18
-2.20763e-18
-2.09456e-18
-1.82602e-18
-1.88293e-18
-1.6475e-18
-1.77306e-18
-1.82815e-18
-1.96321e-18
-1.70761e-18
-1.71163e-18
-1.94101e-18
-1.85491e-18
-1.82957e-18
-2.0419e-18
-2.08651e-18
-1.97779e-18
-1.67983e-18
-1.70059e-18
-1.98755e-18
-1.78438e-18
-1.82119e-18
-1.93371e-18
-1.84528e-18
-1.93566e-18
-1.94227e-18
-1.63049e-18
-1.91777e-18
-1.8135e-18
-1.65249e-18
-1.71137e-18
-1.74237e-18
-1.98653e-18
-1.98126e-18
-1.81258e-18
-1.84907e-18
-1.86802e-18
-1.80486e-18
-1.90138e-18
-1.85528e-18
-1.79335e-18
-1.82775e-18
-1.97802e-18
-1.82472e-18
-1.8058e-18
-1.41322e-18
-1.60631e-18
-1.7641e-18
-1.83588e-18
-1.82651e-18
-2.23955e-18
-2.14184e-18
-1.93113e-18
-2.03808e-18
-1.71663e-18
-1.9116e-18
-1.64797e-18
-1.64631e-18
-1.86698e-18
-2.15667e-18
-2.01658e-18
-1.60647e-18
-1.47123e-18
-1.67519e-18
-1.86851e-18
-1.87553e-18
-1.88625e-18
-1.81611e-18
-2.08331e-18
-1.79986e-18
-1.91671e-18
-1.90786e-18
-1.71594e-18
-1.94885e-18
-1.82679e-18
-1.73907e-18
-1.71271e-18
-1.87809e-18
-1.89642e-18
-1.82562e-18
-1.98872e-18
-1.62887e-18
-1.59126e-18
-2.13389e-18
-1.70921e-18
-1.64757e-18
-1.97489e-18
-1.53444e-18
-1.862e-18
-1.91255e-18
-1.85448e-18
-1.88952e-18
-1.75324e-18
-1.77995e-18
-1.81683e-18
-1.70005e-18
-1.78555e-18
-2.00647e-18
-1.84854e-18
-2.01787e-18
-2.12994e-18
-1.76905e-18
-2.23345e-18
-1.85346e-18
-1.82331e-18
-1.84848e-18
-1.97181e-18
-1.86013e-18
-1.62823e-18
-1.83135e-18
-2.06689e-18
-1.85137e-18
-1.92922e-18
-1.68354e-18
-1.71507e-18
-2.14269e-18
-2.06747e-18
-1.89402e-18
-1.821e-18
-1.93213e-18
-1.78603e-18
-1.60277e-18
-1.99958e-18
-2.03205e-18
-1.92552e-18
-1.75837e-18
-1.80072e-18
-1.75583e-18
-2.14916e-18
-1.90502e-18
-1.5435e-18
-1.71835e-18
-1.72549e-18
-1.78673e-18
-1.7891e-18
-1.47111e-18
-1.76302e-18
-1.93794e-18
-2.04311e-18
-1.70276e-18
-1.81317e-18
-1.75208e-18
-1.78386e-18
-2.08771e-18
-1.77099e-18
-2.01151e-18
-2.03883e-18
-1.87413e-18
-1.88893e-18
-1.87116e-18
-1.87364e-18
-1.7038e-18
-1.7654e-18
-1.64386e-18
-1.84867e-18
-1.82767e-18
-1.66748e-18
-2.01747e-18
-1.85485e-18
-2.28585e-18
-2.06529e-18
-1.62077e-18
-2.03946e-18
-1.97552e-18
-2.02675e-18
-1.86404e-18
-1.90698e-18
-1.74549e-18
-1.74902e-18
-2.03904e-18
-2.15291e-18
-1.59936e-18
-1.60631e-18
-1.6329e-18
-1.69978e-18
-1.82333e-18
-1.6663e-18
-1.69574e-18
-1.73173e-18
-1.82614e-18
-1.89375e-18
-1.74201e-18
-1.95646e-18
-1.83756e-18
-1.85661e-18
-1.76957e-18
-1.80229e-18
-1.7725e-18
-1.91275e-18
-1.99814e-18
-2.10839e-18
-2.09434e-18
-1.63501e-18
-1.92485e-18
-1.898e-18
-1.82461e-18
-1.74729e-18
-1.96836e-18
-2.12703e-18
-2.08505e-18
-1.76845e-18
-2.92141e-18
-3.06958e-18
-2.72441e-18
-2.67645e-18
-2.49912e-18
-2.72403e-18
-3.06824e-18
-2.86959e-18
-3.00734e-18
-2.86503e-18
-3.00484e-18
-2.72949e-18
-2.91651e-18
-2.65122e-18
-2.98331e-18
-2.71129e-18
-2.76467e-18
-3.0168e-18
-2.64976e-18
-2.76168e-18
-2.79786e-18
-2.877e-18
-2.80409e-18
-2.80334e-18
-2.7037e-18
-2.88348e-18
-2.90582e-18
-2.66752e-18
-2.61664e-18
-2.91396e-18
-3.05305e-18
-2.75535e-18
-2.73684e-18
-2.8515e-18
-2.96951e-18
-2.82011e-18
-2.69127e-18
-2.67745e-18
-3.10896e-18
-3.05734e-18
-2.5412e-18
-2.78207e-18
-2.76207e-18
-2.89608e-18
-2.90527e-18
-2.60926e-18
-2.68233e-18
-2.77576e-18
-2.87761e-18
-2.71146e-18
-2.60742e-18
-2.91601e-18
-2.80282e-18
-2.74607e-18
-2.93071e-18
-2.81268e-18
-2.82429e-18
-2.78929e-18
-2.83661e-18
-2.86753e-18
-2.95861e-18
-2.97158e-18
-2.7141e-18
-3.07755e-18
-2.84899e-18
-2.6273e-18
-2.46673e-18
-2.78004e-18
-2.80324e-18
-3.0993e-18
-2.92126e-18
-2.86207e-18
-2.6051e-18
-2.48292e-18
-2.8259e-18
-2.70498e-18
-2.64317e-18
-2.77669e-18
-2.68756e-18
-3.17301e-18
-3.2411e-18
-2.78287e-18
-2.96608e-18
-2.74508e-18
-2.99436e-18
-2.97553e-18
-2.76038e-18
-3.01164e-18
-3.08616e-18
-2.75566e-18
-2.58501e-18
-2.67556e-18
-2.9393e-18
-2.74603e-18
-2.77587e-18
-2.49352e-18
-2.91031e-18
-2.91136e-18
-2.76332e-18
-2.59201e-18
-2.34019e-18
-2.83058e-18
-3.01899e-18
-2.73249e-18
-2.76743e-18
-2.90037e-18
-2.86105e-18
-2.76719e-18
-2.94769e-18
-2.48433e-18
-2.79678e-18
-2.85082e-18
-3.10316e-18
-2.84041e-18
-2.92554e-18
-3.04141e-18
-2.96129e-18
-2.8899e-18
-2.4111e-18
-2.87814e-18
-3.07277e-18
-3.27812e-18
-2.88309e-18
-2.98058e-18
-2.96168e-18
-2.9192e-18
-2.83103e-18
-2.5145e-18
-2.72379e-18
-2.93113e-18
-2.59968e-18
-2.48766e-18
-2.99639e-18
-2.92675e-18
-2.9964e-18
-3.06202e-18
-2.87351e-18
-2.68697e-18
-2.86263e-18
-2.71764e-18
-2.5997e-18
-2.77398e-18
-2.32395e-18
-2.68176e-18
-3.00058e-18
-2.6261e-18
-2.81914e-18
-2.88526e-18
-2.89214e-18
-2.9076e-18
-2.55167e-18
-2.91515e-18
-2.95187e-18
-2.84447e-18
-3.02369e-18
-2.84149e-18
-2.87362e-18
-3.02043e-18
-2.7362e-18
-3.07253e-18
-2.83992e-18
-2.94538e-18
-2.63017e-18
-2.53298e-18
-2.54084e-18
-2.80186e-18
-2.66679e-18
-2.55872e-18
-2.67752e-18
-2.82054e-18
-2.82638e-18
-3.01474e-18
-2.68927e-18
-2.97403e-18
-2.85458e-18
-3.00399e-18
-2.801e-18
-2.941e-18
-2.80973e-18
-2.88011e-18
-2.82721e-18
-2.72158e-18
-2.94537e-18
-2.86371e-18
-2.79696e-18
-2.80438e-18
-2.73002e-18
-2.5682e-18
-2.66605e-18
-2.92824e-18
-2.69983e-18
-2.76539e-18
-2.75949e-18
-2.85519e-18
-2.73826e-18
-2.6997e-18
-2.77861e-18
-2.75305e-18
-3.07758e-18
-2.93654e-18
-2.81376e-18
-2.98179e-18
-2.99521e-18
-2.97487e-18
-3.23645e-18
-2.91485e-18
-2.87607e-18
-2.64079e-18
-2.77159e-18
-2.90202e-18
-2.8131e-18
-3.01729e-18
-3.22866e-18
-3.19876e-18
-2.47658e-18
-2.68036e-18
-2.68643e-18
-2.86811e-18
-2.6358e-18
-2.93847e-18
-2.67483e-18
-2.7866e-18
-2.48419e-18
-2.85864e-18
-2.9214e-18
-2.8264e-18
-2.53617e-18
-2.81911e-18
-2.91066e-18
-2.75077e-18
-2.63194e-18
-3.04742e-18
-2.83576e-18
-2.655e-18
-3.08124e-18
-2.77955e-18
-3.03686e-18
-2.83762e-18
-2.70314e-18
-2.97491e-18
-2.86738e-18
-2.74076e-18
-2.62211e-18
-2.99935e-18
-2.84197e-18
-2.70935e-18
-2.79881e-18
-2.72277e-18
-2.75826e-18
-2.81219e-18
-2.8972e-18
-2.98552e-18
-2.97289e-18
-2.85063e-18
-2.77178e-18
-2.66388e-18
-5.24604e-18
-5.07242e-18
-4.8493e-18
-4.95901e-18
-4.86632e-18
-5.61754e-18
-5.61703e-18
-5.25239e-18
-5.96374e-18
-5.29574e-18
-4.98644e-18
-4.91705e-18
-5.02152e-18
-5.35426e-18
-5.13619e-18
-5.00211e-18
-4.82951e-18
-5.78222e-18
-5.57299e-18
-5.00025e-18
-4.96057e-18
-5.07161e-18
-5.49021e-18
-5.36257e-18
-5.35647e-18
-5.4572e-18
-5.0337e-18
-5.21114e-18
-5.53451e-18
-5.32847e-18
-5.53178e-18
-4.77204e-18
-5.33964e-18
-4.99219e-18
-5.35167e-18
-4.96265e-18
-5.09462e-18
-5.65188e-18
-4.98276e-18
-4.91476e-18
-5.11957e-18
-5.61664e-18
-5.34658e-18
-4.74814e-18
-4.60637e-18
-4.92107e-18
-5.16908e-18
-5.2836e-18
-5.01772e-18
-5.17155e-18
-5.34195e-18
-5.27967e-18
-5.52424e-18
-5.02351e-18
-5.46982e-18
-5.07163e-18
-5.10763e-18
-4.88497e-18
-5.05959e-18
-5.02788e-18
-5.15056e-18
-5.30621e-18
-5.23081e-18
-5.06237e-18
-5.55393e-18
-4.88734e-18
-4.82258e-18
-4.94717e-18
-5.4783e-18
-5.47531e-18
-5.57783e-18
-5.20976e-18
-5.19912e-18
-4.77235e-18
-5.0768e-18
-4.87292e-18
-4.85048e-18
-5.48223e-18
-5.48737e-18
-6.03247e-18
-5.36657e-18
-5.32305e-18
-5.0388e-18
-5.38918e-18
-5.80537e-18
-4.7385e-18
-4.81572e-18
-5.21702e-18
-5.34709e-18
-5.31942e-18
-4.89188e-18
-5.22789e-18
-5.03202e-18
-4.98464e-18
-5.1736e-18
-5.0835e-18
-5.38802e-18
-4.99894e-18
-4.65562e-18
-5.36404e-18
-5.13677e-18
-4.98842e-18
-5.03969e-18
-5.34776e-18
-5.2947e-18
-5.82916e-18
-5.12849e-18
-4.99076e-18
-5.43276e-18
-5.35525e-18
-4.85587e-18
-4.9392e-18
-5.02474e-18
-5.6816e-18
-5.80376e-18
-5.09868e-18
-4.86294e-18
-4.56059e-18
-5.02987e-18
-5.43935e-18
-5.2232e-18
-5.72368e-18
-5.63067e-18
-5.2822e-18
-5.53268e-18
-5.67226e-18
-5.42756e-18
-4.97599e-18
-4.96371e-18
-5.11846e-18
-4.76573e-18
-5.21687e-18
-5.44503e-18
-4.89705e-18
-5.58945e-18
-5.11656e-18
-5.44215e-18
-4.77718e-18
-5.10051e-18
-5.31915e-18
-5.42698e-18
-5.51502e-18
-4.96974e-18
-5.14369e-18
-5.48784e-18
-4.71772e-18
-5.247e-18
-4.72829e-18
-4.97376e-18
-4.96295e-18
-5.17839e-18
-5.24263e-18
-5.56459e-18
-5.38502e-18
-5.33001e-18
-5.50226e-18
-4.52332e-18
-5.25581e-18
-5.5675e-18
-5.17517e-18
-4.86401e-18
-5.17529e-18
-4.92376e-18
-5.23182e-18
-4.67124e-18
-5.11666e-18
-5.34946e-18
-4.90231e-18
-4.90877e-18
-4.86001e-18
-5.68802e-18
-5.71329e-18
-5.56427e-18
-5.02051e-18
-4.99972e-18
-5.38468e-18
-4.84242e-18
-5.53919e-18
-5.3824e-18
-5.57924e-18
-5.48737e-18
-4.99908e-18
-4.82823e-18
-5.19648e-18
-5.10784e-18
-5.33867e-18
-5.15648e-18
-4.58599e-18
-4.99768e-18
-5.50832e-18
-5.15881e-18
-5.79421e-18
-5.35899e-18
-5.18809e-18
-5.30531e-18
-5.63076e-18
-5.13205e-18
-4.9305e-18
-4.94099e-18
-5.28364e-18
-5.40474e-18
-4.90807e-18
-4.64117e-18
-5.0332e-18
-5.24713e-18
-5.04144e-18
-5.69769e-18
-5.51237e-18
-5.32763e-18
-5.24948e-18
-5.24749e-18
-5.31973e-18
-5.76465e-18
-4.95706e-18
-4.53791e-18
-4.85696e-18
-5.40034e-18
-5.24064e-18
-4.88075e-18
-5.07834e-18
-4.81236e-18
-4.87424e-18
-4.82907e-18
-4.94697e-18
-5.21262e-18
-5.61595e-18
-5.64195e-18
-5.29901e-18
-6.00419e-18
-5.80907e-18
-4.81636e-18
-5.27544e-18
-4.77262e-18
-5.45856e-18
-5.59273e-18
-4.87567e-18
-5.14579e-18
-5.04571e-18
-5.29469e-18
-5.60096e-18
-5.53884e-18
-5.57476e-18
-5.03479e-18
-4.6559e-18
-4.81536e-18
-5.33026e-18
-5.30138e-18
-4.79285e-18
-4.79929e-18
-5.47971e-18
-5.90874e-18
-5.49912e-18
-5.01581e-18
-5.09219e-18
-4.74593e-18
-5.08237e-18
-9.75529e-18
-8.58758e-18
-1.02553e-17
-1.02637e-17
-9.38452e-18
-9.99458e-18
-9.37191e-18
-9.72085e-18
-1.09072e-17
-9.8435e-18
-8.67367e-18
-9.10619e-18
-1.02977e-17
-9.6092e-18
-9.67984e-18
-8.81267e-18
-9.99093e-18
-1.14731e-17
-1.04664e-17
-9.95704e-18
-9.63223e-18
-1.03232e-17
-8.43463e-18
-9.04058e-18
-8.71457e-18
-1.02548e-17
-1.06796e-17
-1.01553e-17
-9.73804e-18
-9.75964e-18
-9.91396e-18
-9.65898e-18
-9.89807e-18
-9.14945e-18
-9.84097e-18
-9.07144e-18
-8.64839e-18
-9.93326e-18
-8.74155e-18
-1.00238e-17
-8.66308e-18
-1.04708e-17
-1.09268e-17
-1.07424e-17
-9.74428e-18
-1.0059e-17
-8.76421e-18
-9.66317e-18
-1.01617e-17
-9.95661e-18
-9.8186e-18
-9.64424e-18
-9.21477e-18
-9.07568e-18
-1.04284e-17
-8.38367e-18
-8.83786e-18
-1.01033e-17
-9.48653e-18
-9.28654e-18
-9.57793e-18
-8.93643e-18
-8.63017e-18
-9.55603e-18
-9.37016e-18
-1.05866e-17
-9.81639e-18
-9.92973e-18
-9.74001e-18
-1.01621e-17
-9.07921e-18
-9.88117e-18
-1.07823e-17
-1.01639e-17
-9.58622e-18
-9.0953e-18
-9.38996e-18
-9.75995e-18
-9.25404e-18
-1.01366e-17
-1.00337e-17
-1.00961e-17
-9.05137e-18
-9.47775e-18
-1.13597e-17
-1.01761e-17
-9.81241e-18
-1.07205e-17
-9.93954e-18
-9.864e-18
-9.09383e-18
-8.94991e-18
-8.9007e-18
-9.11733e-18
-9.60247e-18
-9.59734e-18
-1.02622e-17
-9.99141e-18
-9.35761e-18
-9.98747e-18
-1.00117e-17
-8.71556e-18
-9.11704e-18
-9.14494e-18
-9.09881e-18
-1.01771e-17
-1.05284e-17
-9.97022e-18
-1.04235e-17
-1.03199e-17
-1.01296e-17
-9.12147e-18
-9.09913e-18
-1.01177e-17
-1.01361e-17
-1.00152e-17
-1.0331e-17
-1.0359e-17
-8.63548e-18
-9.70341e-18
-8.3178e-18
-1.04386e-17
-9.50815e-18
-9.84044e-18
-9.51461e-18
-9.67979e-18
-9.76782e-18
-9.39218e-18
-9.24015e-18
-1.02625e-17
-1.0273e-17
-9.78965e-18
-9.81011e-18
-9.33842e-18
-1.10813e-17
-8.31729e-18
-9.18339e-18
-8.97432e-18
-1.09628e-17
-1.02322e-17
-1.02065e-17
-9.89515e-18
-9.1758e-18
-8.97744e-18
-9.43796e-18
-9.08492e-18
-1.00341e-17
-9.66662e-18
-9.43927e-18
-9.11879e-18
-9.08472e-18
-9.8413e-18
-9.77092e-18
-9.69537e-18
-1.02737e-17
-9.31491e-18
-8.89813e-18
-9.98358e-18
-1.01156e-17
-9.51288e-18
-9.51701e-18
-1.03895e-17
-9.94234e-18
-1.03731e-17
-9.6021e-18
-9.74063e-18
-1.00384e-17
-9.677e-18
-9.90774e-18
-9.47338e-18
-9.7157e-18
-9.97298e-18
-1.07603e-17
-1.09264e-17
-9.83843e-18
-9.41269e-18
-9.07983e-18
-9.46878e-18
-9.73558e-18
-9.82608e-18
-9.67329e-18
-9.44963e-18
-9.46831e-18
-9.4458e-18
-1.0412e-17
-9.75375e-18
-1.06505e-17
-8.64714e-18
-9.19932e-18
-9.31657e-18
-8.91004e-18
-1.03454e-17
-9.44293e-18
-9.40398e-18
-9.59387e-18
-1.11549e-17
-1.11949e-17
-9.85748e-18
-9.2977e-18
-9.16581e-18
-9.40126e-18
-1.04864e-17
-9.34326e-18
-8.89316e-18
-9.13123e-18
-8.85754e-18
-1.03073e-17
-1.01931e-17
-1.04377e-17
-9.28255e-18
-1.0178e-17
-9.81064e-18
-9.52044e-18
-8.51856e-18
-9.39452e-18
-9.82725e-18
-9.67786e-18
-9.00529e-18
-1.0124e-17
-1.00355e-17
-9.90125e-18
-1.00903e-17
-1.05269e-17
-9.96586e-18
-8.8574e-18
-9.99852e-18
-1.02359e-17
-1.01268e-17
-1.00705e-17
-9.53691e-18
-8.90177e-18
-1.03209e-17
-1.08153e-17
-1.00318e-17
-9.35163e-18
-9.44941e-18
-9.59366e-18
-9.64413e-18
-9.71511e-18
-9.85501e-18
-8.85472e-18
-9.5815e-18
-9.54725e-18
-8.96169e-18
-9.69291e-18
-1.00834e-17
-1.06275e-17
-9.03204e-18
-8.70693e-18
-1.0919e-17
-1.01441e-17
-9.16219e-18
-1.00078e-17
-1.01614e-17
-8.28225e-18
-9.56086e-18
-1.94147e-17
-1.8009e-17
-1.74347e-17
-1.84952e-17
-1.99297e-17
-1.82788e-17
-1.62277e-17
-1.74166e-17
-1.92894e-17
-2.03405e-17
-1.55561e-17
-1.58566e-17
-1.71442e-17
-1.6936e-17
-1.90753e-17
-1.67015e-17
-1.73844e-17
-2.11761e-17
-1.93136e-17
-1.92541e-17
-1.83067e-17
-1.91661e-17
-1.88547e-17
-1.61813e-17
-1.71144e-17
-1.76935e-17
-1.90415e-17
-1.97975e-17
-1.95064e-17
-1.87264e-17
-1.84395e-17
-1.85761e-17
-1.79163e-17
-1.58946e-17
-1.70757e-17
-1.75586e-17
-1.70361e-17
-1.86995e-17
-1.65324e-17
-1.75373e-17
-1.81628e-17
-1.75107e-17
-1.77988e-17
-1.78187e-17
-1.77454e-17
-1.81246e-17
-1.78798e-17
-1.85316e-17
-1.83775e-17
-1.95162e-17
-1.86559e-17
-1.81097e-17
-1.76539e-17
-1.85207e-17
-1.83748e-17
-1.77344e-17
-1.79101e-17
-1.82966e-17
-1.65208e-17
-1.72753e-17
-1.68529e-17
-1.89372e-17
-1.79265e-17
-1.85804e-17
-1.94847e-17
-1.75119e-17
-1.80448e-17
-1.89413e-17
-1.89839e-17
-1.83124e-17
-1.76172e-17
-1.67744e-17
-1.73326e-17
-1.95704e-17
-1.70146e-17
-1.72235e-17
-1.91836e-17
-1.8448e-17
-1.70344e-17
-1.9801e-17
-1.86556e-17
-1.80323e-17
-1.95418e-17
-1.79134e-17
-1.88629e-17
-1.93729e-17
-1.79131e-17
-1.90325e-17
-1.8567e-17
-1.78847e-17
-2.06163e-17
-1.87467e-17
-1.80889e-17
-1.74286e-17
-1.79758e-17
-1.6249e-17
-1.80905e-17
-1.82394e-17
-1.62405e-17
-1.67674e-17
-1.69273e-17
-1.6333e-17
-1.87241e-17
-2.09554e-17
-2.07213e-17
-1.93473e-17
-2.01756e-17
-1.68525e-17
-1.78856e-17
-1.8396e-17
-1.81e-17
-1.62565e-17
-1.66131e-17
-1.72198e-17
-1.83536e-17
-1.79544e-17
-1.74371e-17
-1.76912e-17
-1.7157e-17
-2.00622e-17
-1.85049e-17
-1.94769e-17
-1.84475e-17
-1.64572e-17
-1.76405e-17
-1.83535e-17
-1.86105e-17
-1.88809e-17
-1.92204e-17
-1.74119e-17
-1.92975e-17
-1.78124e-17
-1.73326e-17
-1.56626e-17
-1.97473e-17
-1.83152e-17
-1.68841e-17
-1.6736e-17
-1.81618e-17
-1.77497e-17
-2.06279e-17
-1.9453e-17
-1.65396e-17
-1.72852e-17
-1.76459e-17
-1.73879e-17
-1.847e-17
-1.76094e-17
-1.70622e-17
-1.85014e-17
-1.61345e-17
-1.84392e-17
-1.72474e-17
-1.61334e-17
-1.72027e-17
-1.75291e-17
-1.66684e-17
-1.85253e-17
-1.79459e-17
-2.01476e-17
-2.0134e-17
-1.88824e-17
-1.74503e-17
-1.90904e-17
-1.68239e-17
-1.74919e-17
-1.7025e-17
-1.88494e-17
-1.86657e-17
-1.9389e-17
-1.97422e-17
-2.07557e-17
-1.84247e-17
-1.82194e-17
-1.88415e-17
-1.85326e-17
-1.69311e-17
-1.57904e-17
-1.91122e-17
-1.87318e-17
-1.79947e-17
-1.86189e-17
-1.70685e-17
-1.88966e-17
-1.80983e-17
-1.783e-17
-1.77503e-17
-1.66609e-17
-1.81874e-17
-1.81947e-17
-1.81169e-17
-1.97374e-17
-1.89706e-17
-1.7573e-17
-1.8651e-17
-1.65813e-17
-1.77893e-17
-1.7926e-17
-1.7305e-17
-1.86844e-17
-1.82082e-17
-1.87155e-17
-1.7116e-17
-2.01039e-17
-1.82063e-17
-1.99112e-17
-1.77408e-17
-1.9745e-17
-1.85279e-17
-1.72631e-17
-1.65682e-17
-1.90245e-17
-1.93964e-17
-1.78244e-17
-1.95048e-17
-1.90273e-17
-1.62489e-17
-1.73933e-17
-1.91376e-17
-1.62442e-17
-1.69358e-17
-1.77891e-17
-1.7252e-17
-1.87487e-17
-1.80246e-17
-1.8232e-17
-1.91864e-17
-1.74973e-17
-1.8317e-17
-1.72352e-17
-1.85211e-17
-2.01179e-17
-1.99092e-17
-1.84915e-17
-1.72116e-17
-1.86183e-17
-1.85e-17
-1.6077e-17
-1.7029e-17
-1.91218e-17
-1.89614e-17
-1.81519e-17
-1.5436e-17
-1.87351e-17
-1.90428e-17
-1.87985e-17
-1.65286e-17
-1.66767e-17
-1.86829e-17
-1.86899e-17
-1.8741e-17
-1.85061e-17
-1.89818e-17
-1.73718e-17
-1.72482e-17
-1.94101e-17
-3.83615e-17
-3.42432e-17
-3.32047e-17
-3.47329e-17
-3.33759e-17
-3.24564e-17
-3.29241e-17
-3.6314e-17
-3.64373e-17
-3.66121e-17
-3.21042e-17
-3.22518e-17
-3.2044e-17
-3.11143e-17
-3.21756e-17
-3.17347e-17
-3.57898e-17
-3.64136e-17
-3.49874e-17
-3.59809e-17
-3.37308e-17
-3.48909e-17
-3.75984e-17
-2.96661e-17
-3.23346e-17
-3.33506e-17
-3.20983e-17
-3.53372e-17
-3.44139e-17
-3.43253e-17
-3.66142e-17
-3.3944e-17
-3.30863e-17
-3.47188e-17
-3.38502e-17
-3.55644e-17
-3.28361e-17
-3.58786e-17
-3.15484e-17
-3.14385e-17
-3.42136e-17
-3.54792e-17
-3.38278e-17
-3.03404e-17
-3.34585e-17
-3.75561e-17
-3.21973e-17
-3.242e-17
-3.38311e-17
-3.45235e-17
-2.99514e-17
-3.50124e-17
-3.35483e-17
-3.0929e-17
-3.59124e-17
-3.34956e-17
-3.29099e-17
-3.61441e-17
-3.27328e-17
-2.99622e-17
-3.20645e-17
-3.28431e-17
-3.51611e-17
-3.9844e-17
-3.44287e-17
-3.4856e-17
-3.15298e-17
-3.39767e-17
-3.27086e-17
-3.6895e-17
-3.23193e-17
-3.3634e-17
-3.29823e-17
-3.13484e-17
-3.38713e-17
-3.09511e-17
-3.70923e-17
-3.64502e-17
-3.57559e-17
-3.69454e-17
-3.60908e-17
-3.38258e-17
-3.28126e-17
-3.48201e-17
-3.66451e-17
-3.2294e-17
-3.34367e-17
-3.38035e-17
-3.39403e-17
-3.58641e-17
-3.75192e-17
-3.66481e-17
-3.20801e-17
-3.50795e-17
-3.46343e-17
-3.14677e-17
-3.25093e-17
-3.09866e-17
-3.07609e-17
-3.38398e-17
-3.26913e-17
-3.05277e-17
-3.5511e-17
-3.69639e-17
-3.23827e-17
-3.39215e-17
-3.40824e-17
-3.49654e-17
-3.56706e-17
-3.67553e-17
-3.28233e-17
-3.2971e-17
-3.53209e-17
-3.22985e-17
-3.60356e-17
-3.25095e-17
-3.31681e-17
-3.11292e-17
-3.22975e-17
-3.39312e-17
-3.2874e-17
-2.89376e-17
-3.24998e-17
-3.63774e-17
-3.35709e-17
-3.7391e-17
-3.53928e-17
-3.31747e-17
-3.62357e-17
-3.33311e-17
-3.50685e-17
-3.38934e-17
-3.33548e-17
-3.1336e-17
-3.34876e-17
-3.17691e-17
-3.37412e-17
-3.39016e-17
-3.09374e-17
-3.38756e-17
-3.64635e-17
-3.40331e-17
-3.1687e-17
-3.42224e-17
-3.4471e-17
-3.25717e-17
-3.40346e-17
-3.54604e-17
-3.33733e-17
-3.31036e-17
-3.49332e-17
-3.54198e-17
-3.43767e-17
-3.22467e-17
-3.26958e-17
-3.45941e-17
-3.6589e-17
-3.13314e-17
-3.18906e-17
-3.43015e-17
-3.4404e-17
-3.23412e-17
-3.13635e-17
-3.25852e-17
-3.61031e-17
-3.41224e-17
-3.37119e-17
-3.22505e-17
-3.59835e-17
-3.28005e-17
-3.53073e-17
-3.60214e-17
-3.32731e-17
-3.64551e-17
-3.3562e-17
-3.29615e-17
-3.25703e-17
-3.58113e-17
-3.31422e-17
-3.52378e-17
-3.33512e-17
-3.27565e-17
-3.351e-17
-3.44091e-17
-3.56364e-17
-3.28154e-17
-3.27962e-17
-3.53785e-17
-3.58946e-17
-3.3722e-17
-3.40991e-17
-3.47207e-17
-3.496e-17
-3.38659e-17
-3.49647e-17
-3.66765e-17
-3.29272e-17
-3.29973e-17
-3.34761e-17
-3.37005e-17
-3.3519e-17
-3.48934e-17
-3.34636e-17
-3.55036e-17
-3.37276e-17
-3.40011e-17
-3.02555e-17
-3.08473e-17
-3.33414e-17
-3.29008e-17
-3.05857e-17
-3.3657e-17
-3.47651e-17
-3.96592e-17
-3.7024e-17
-3.51424e-17
-3.62168e-17
-3.26936e-17
-3.6766e-17
-2.9798e-17
-3.49822e-17
-3.28143e-17
-3.41685e-17
-3.44412e-17
-3.22469e-17
-3.37534e-17
-3.5677e-17
-3.12164e-17
-3.22048e-17
-3.22731e-17
-3.1247e-17
-3.18661e-17
-3.54956e-17
-3.44091e-17
-3.16443e-17
-3.38987e-17
-3.34924e-17
-3.29089e-17
-3.53129e-17
-3.64095e-17
-3.73482e-17
-3.5993e-17
-3.3835e-17
-3.26764e-17
-3.31291e-17
-3.40254e-17
-3.46e-17
-3.35606e-17
-3.41502e-17
-3.33047e-17
-3.08276e-17
-3.09013e-17
-3.11692e-17
-3.55526e-17
-3.60274e-17
-3.79282e-17
-6.10045e-17
-6.56013e-17
-6.77991e-17
-6.08655e-17
-5.52258e-17
-5.44887e-17
-6.18325e-17
-6.83962e-17
-6.84732e-17
-6.31461e-17
-5.92476e-17
-6.7674e-17
-6.4357e-17
-6.09904e-17
-5.88707e-17
-6.14346e-17
-7.03442e-17
-6.80736e-17
-6.15094e-17
-6.63611e-17
-6.15361e-17
-6.86089e-17
-6.01073e-17
-6.62077e-17
-7.03328e-17
-5.53292e-17
-6.20207e-17
-6.25197e-17
-6.15653e-17
-7.19616e-17
-6.23059e-17
-6.02089e-17
-6.69199e-17
-6.93355e-17
-5.49144e-17
-5.83345e-17
-6.26036e-17
-5.86215e-17
-6.76979e-17
-6.24848e-17
-6.62181e-17
-6.21968e-17
-6.3626e-17
-6.04852e-17
-6.55339e-17
-6.86946e-17
-6.19815e-17
-6.09783e-17
-5.87729e-17
-6.3061e-17
-6.50827e-17
-6.43887e-17
-6.62602e-17
-6.17358e-17
-6.35159e-17
-6.46307e-17
-6.65625e-17
-6.33253e-17
-6.48539e-17
-5.7912e-17
-6.12741e-17
-6.58063e-17
-6.42829e-17
-6.03986e-17
-6.33127e-17
-6.25854e-17
-6.49581e-17
-6.24592e-17
-6.2115e-17
-7.11715e-17
-6.54499e-17
-6.2925e-17
-6.67836e-17
-6.10464e-17
-6.35778e-17
-6.20488e-17
-5.98124e-17
-6.09714e-17
-6.42945e-17
-6.60888e-17
-6.18252e-17
-6.65832e-17
-5.88157e-17
-5.40623e-17
-6.59038e-17
-6.06168e-17
-6.11581e-17
-6.22339e-17
-6.54262e-17
-6.59532e-17
-6.70916e-17
-6.25099e-17
-6.47024e-17
-6.39852e-17
-6.2315e-17
-6.30452e-17
-6.20274e-17
-6.54479e-17
-6.40171e-17
-6.38221e-17
-6.07722e-17
-6.00604e-17
-6.15629e-17
-6.29156e-17
-6.61482e-17
-6.92585e-17
-6.20317e-17
-6.30706e-17
-6.404e-17
-6.4465e-17
-6.11797e-17
-5.78614e-17
-6.0336e-17
-5.92048e-17
-6.8184e-17
-6.26633e-17
-6.64146e-17
-5.94712e-17
-6.14687e-17
-6.22145e-17
-6.44423e-17
-6.64218e-17
-6.16661e-17
-6.92269e-17
-6.40314e-17
-6.57303e-17
-6.80578e-17
-6.23643e-17
-6.75369e-17
-6.61994e-17
-6.3098e-17
-6.20055e-17
-6.52084e-17
-6.63537e-17
-5.75178e-17
-5.7753e-17
-6.33439e-17
-6.1604e-17
-5.79666e-17
-6.5878e-17
-6.0613e-17
-5.51112e-17
-6.2904e-17
-6.09995e-17
-6.46419e-17
-5.68059e-17
-6.7192e-17
-6.55192e-17
-6.82511e-17
-6.20789e-17
-6.61534e-17
-6.71366e-17
-6.67701e-17
-6.25371e-17
-6.30147e-17
-6.63571e-17
-6.32309e-17
-6.32173e-17
-6.31819e-17
-6.05721e-17
-6.24318e-17
-6.45622e-17
-6.15059e-17
-6.12274e-17
-6.41443e-17
-6.73272e-17
-6.14609e-17
-6.46406e-17
-6.54864e-17
-6.62741e-17
-6.49965e-17
-6.00434e-17
-5.57204e-17
-6.27425e-17
-6.64009e-17
-7.1426e-17
-6.3593e-17
-6.6163e-17
-5.72097e-17
-6.30017e-17
-6.71197e-17
-6.17808e-17
-6.62403e-17
-6.27761e-17
-6.10946e-17
-6.56237e-17
-5.63359e-17
-6.24535e-17
-6.83808e-17
-6.74059e-17
-6.53619e-17
-6.31509e-17
-6.09424e-17
-6.12029e-17
-6.20745e-17
-6.30783e-17
-6.40248e-17
-5.85762e-17
-5.64636e-17
-6.43947e-17
-5.85107e-17
-6.79482e-17
-6.81829e-17
-6.56021e-17
-6.41515e-17
-6.05714e-17
-6.23952e-17
-6.50569e-17
-5.73067e-17
-5.98232e-17
-6.12528e-17
-6.10239e-17
-6.03246e-17
-6.83342e-17
-6.54952e-17
-6.93937e-17
-6.71799e-17
-6.27147e-17
-6.98703e-17
-6.14191e-17
-6.60637e-17
-6.18339e-17
-6.02361e-17
-6.57934e-17
-6.35107e-17
-6.70877e-17
-6.5313e-17
-5.83622e-17
-5.87302e-17
-5.73202e-17
-6.27002e-17
-6.53022e-17
-6.83245e-17
-6.95782e-17
-6.27706e-17
-6.17306e-17
-6.12806e-17
-5.91173e-17
-6.6755e-17
-7.04843e-17
-5.76663e-17
-6.67622e-17
-6.25715e-17
-5.81324e-17
-6.244e-17
-6.04169e-17
-6.24631e-17
-5.99649e-17
-6.12502e-17
-6.41546e-17
-6.55595e-17
-6.1824e-17
-6.82455e-17
-6.14039e-17
-6.02633e-17
-6.18664e-17
-1.30078e-16
-1.11763e-16
-1.27089e-16
-1.11852e-16
-1.14275e-16
-1.156e-16
-1.2094e-16
-1.24119e-16
-1.20531e-16
-1.1211e-16
-1.16127e-16
-1.31256e-16
-1.1441e-16
-1.08794e-16
-1.14845e-16
-1.18007e-16
-1.14724e-16
-1.24691e-16
-1.18692e-16
-1.12253e-16
-1.27621e-16
-1.20195e-16
-1.16449e-16
-1.29891e-16
-1.2731e-16
-1.08074e-16
-1.17511e-16
-1.2083e-16
-1.0753e-16
-1.15429e-16
-1.07069e-16
-1.09787e-16
-1.16087e-16
-1.16595e-16
-1.20777e-16
-1.25013e-16
-1.03687e-16
-1.16032e-16
-1.13669e-16
-1.25329e-16
-1.27447e-16
-1.25441e-16
-1.28246e-16
-1.21376e-16
-1.03959e-16
-1.04181e-16
-1.21719e-16
-1.17686e-16
-1.21198e-16
-1.19773e-16
-1.13229e-16
-1.14575e-16
-1.25727e-16
-1.18399e-16
-1.37015e-16
-1.19264e-16
-1.16734e-16
-1.21799e-16
-1.32259e-16
-1.11715e-16
-1.03876e-16
-1.09422e-16
-1.15511e-16
-1.16638e-16
-1.2594e-16
-1.22451e-16
-1.07993e-16
-1.1104e-16
-1.1983e-16
-1.10672e-16
-1.19049e-16
-1.21971e-16
-1.15427e-16
-1.29999e-16
-1.22891e-16
-1.20338e-16
-1.21817e-16
-1.13063e-16
-1.29731e-16
-1.11075e-16
-1.13767e-16
-1.27571e-16
-1.1086e-16
-1.19097e-16
-1.13246e-16
-1.12242e-16
-1.23547e-16
-1.13916e-16
-1.2565e-16
-1.20471e-16
-1.19546e-16
-1.33115e-16
-1.16741e-16
-1.21304e-16
-1.10187e-16
-1.08442e-16
-1.08198e-16
-1.1407e-16
-1.12368e-16
-1.14918e-16
-1.18303e-16
-1.18094e-16
-1.25343e-16
-1.05256e-16
-1.09175e-16
-1.20559e-16
-1.42633e-16
-1.17894e-16
-1.12005e-16
-1.15901e-16
-1.28221e-16
-1.24281e-16
-1.23283e-16
-1.18982e-16
-1.08166e-16
-1.2993e-16
-1.21853e-16
-1.07702e-16
-1.07602e-16
-1.20694e-16
-1.29313e-16
-1.1382e-16
-1.17174e-16
-1.16417e-16
-1.15793e-16
-1.15961e-16
-1.32309e-16
-1.19462e-16
-1.19729e-16
-1.28396e-16
-1.17248e-16
-1.07981e-16
-1.20909e-16
-1.20164e-16
-1.13946e-16
-1.04739e-16
-1.24833e-16
-1.20797e-16
-1.07731e-16
-1.19244e-16
-1.06608e-16
-1.0852e-16
-1.24302e-16
-1.23123e-16
-1.24104e-16
-1.25697e-16
-1.15431e-16
-1.18236e-16
-1.21285e-16
-1.2145e-16
-1.23923e-16
-1.21254e-16
-1.24383e-16
-1.03711e-16
-1.08993e-16
-1.1553e-16
-1.22293e-16
-1.22619e-16
-1.24395e-16
-1.32659e-16
-1.23145e-16
-1.0089e-16
-1.15418e-16
-1.14696e-16
-1.31603e-16
-1.21463e-16
-1.25125e-16
-1.09371e-16
-1.13757e-16
-1.22106e-16
-1.12305e-16
-1.03767e-16
-1.14219e-16
-1.28139e-16
-1.26426e-16
-1.22466e-16
-1.10598e-16
-1.21249e-16
-1.11961e-16
-1.2681e-16
-1.31339e-16
-1.18695e-16
-1.26174e-16
-1.14716e-16
-1.01519e-16
-1.11733e-16
-1.12825e-16
-1.18268e-16
-1.19021e-16
-1.3185e-16
-1.29769e-16
-1.19395e-16
-1.15098e-16
-1.27908e-16
-1.16924e-16
-1.05699e-16
-1.14901e-16
-1.05462e-16
-1.09196e-16
-1.18656e-16
-1.14663e-16
-1.08545e-16
-1.28764e-16
-1.25405e-16
-1.12067e-16
-1.17315e-16
-1.1054e-16
-1.22365e-16
-1.2599e-16
-1.14793e-16
-1.26691e-16
-1.14561e-16
-1.11379e-16
-1.2053e-16
-1.18432e-16
-1.33585e-16
-1.24949e-16
-1.266e-16
-1.20039e-16
-1.10214e-16
-1.19363e-16
-1.12757e-16
-1.18375e-16
-1.25383e-16
-1.1086e-16
-1.23277e-16
-1.19345e-16
-1.15543e-16
-1.18069e-16
-1.16031e-16
-1.19562e-16
-1.19514e-16
-1.27695e-16
-1.30658e-16
-1.21699e-16
-1.24708e-16
-1.13289e-16
-1.0612e-16
-1.19208e-16
-1.2488e-16
-1.22756e-16
-1.09876e-16
-1.13121e-16
-1.08585e-16
-1.02001e-16
-1.29278e-16
-1.42436e-16
-1.07393e-16
-1.09466e-16
-1.24601e-16
-1.16379e-16
-1.09228e-16
-1.13063e-16
-1.17014e-16
-1.16758e-16
-1.34256e-16
-1.92785e-16
-2.18215e-16
-2.22276e-16
-2.12447e-16
-2.26008e-16
-2.54945e-16
-2.27357e-16
-2.35199e-16
-2.36024e-16
-2.27095e-16
-2.36524e-16
-2.26675e-16
-2.18898e-16
-2.21412e-16
-2.08051e-16
-2.34284e-16
-2.16223e-16
-2.31818e-16
-2.23311e-16
-2.18939e-16
-2.03312e-16
-2.03628e-16
-2.27312e-16
-2.17111e-16
-2.25793e-16
-2.20197e-16
-1.88646e-16
-2.19124e-16
-2.05514e-16
-2.09927e-16
-2.16339e-16
-2.2371e-16
-2.0132e-16
-2.18032e-16
-2.33218e-16
-2.13095e-16
-2.14966e-16
-2.27704e-16
-2.16479e-16
-2.33223e-16
-2.28849e-16
-2.22356e-16
-2.39356e-16
-2.30749e-16
-2.26593e-16
-2.40176e-16
-2.2051e-16
-2.14591e-16
-2.14711e-16
-2.31338e-16
-2.37554e-16
-2.12622e-16
-2.24231e-16
-2.22765e-16
-2.16373e-16
-2.20167e-16
-2.39015e-16
-2.06141e-16
-2.27084e-16
-2.35434e-16
-2.19575e-16
-2.08364e-16
-2.17117e-16
-2.09281e-16
-2.29131e-16
-2.31497e-16
-2.17057e-16
-2.31374e-16
-2.04692e-16
-2.2131e-16
-1.985e-16
-2.4168e-16
-2.2358e-16
-2.31839e-16
-2.23931e-16
-1.96157e-16
-2.05827e-16
-2.07128e-16
-2.10301e-16
-2.08499e-16
-2.22711e-16
-2.4899e-16
-2.22167e-16
-2.24492e-16
-2.25243e-16
-2.21608e-16
-2.19043e-16
-1.94424e-16
-2.23003e-16
-2.35648e-16
-2.10265e-16
-2.04199e-16
-2.00461e-16
-2.23307e-16
-2.13603e-16
-2.14874e-16
-2.18978e-16
-2.29592e-16
-2.16059e-16
-2.32674e-16
-2.26586e-16
-2.17292e-16
-2.24554e-16
-2.18154e-16
-1.99689e-16
-2.10631e-16
-2.15355e-16
-2.27561e-16
-2.26686e-16
-2.3331e-16
-2.38117e-16
-2.32237e-16
-2.16519e-16
-2.02138e-16
-2.22145e-16
-2.40094e-16
-2.25049e-16
-2.16765e-16
-2.1873e-16
-1.92725e-16
-2.21321e-16
-2.48972e-16
-2.19366e-16
-2.08432e-16
-2.40011e-16
-2.2757e-16
-2.42938e-16
-2.36316e-16
-2.40481e-16
-2.42475e-16
-2.20191e-16
-2.40558e-16
-2.17067e-16
-2.11906e-16
-2.13567e-16
-1.89855e-16
-2.18907e-16
-2.17384e-16
-2.24033e-16
-2.28378e-16
-2.23207e-16
-2.18999e-16
-2.15224e-16
-2.29093e-16
-2.27434e-16
-2.24606e-16
-2.0884e-16
-2.02751e-16
-2.12497e-16
-2.23839e-16
-2.21276e-16
-2.27897e-16
-2.29167e-16
-1.94206e-16
-2.01131e-16
-2.06571e-16
-2.33794e-16
-2.27502e-16
-2.19369e-16
-2.13968e-16
-2.21868e-16
-2.18317e-16
-2.13454e-16
-2.14512e-16
-2.45108e-16
-2.077e-16
-2.3029e-16
-2.11451e-16
-2.20473e-16
-2.49797e-16
-2.14316e-16
-2.03112e-16
-2.10697e-16
-2.46828e-16
-2.27561e-16
-2.22405e-16
-2.00037e-16
-2.12469e-16
-2.47207e-16
-2.36748e-16
-2.34748e-16
-2.06279e-16
-2.214e-16
-2.02932e-16
-2.16811e-16
-2.10929e-16
-2.40875e-16
-2.43439e-16
-2.31858e-16
-1.98533e-16
-2.26978e-16
-2.13304e-16
-2.31802e-16
-2.29066e-16
-2.20038e-16
-2.09833e-16
-2.15704e-16
-1.92274e-16
-2.00552e-16
-2.19053e-16
-2.22488e-16
-2.26064e-16
-2.27424e-16
-2.17077e-16
-2.21171e-16
-2.29265e-16
-2.14145e-16
-2.16062e-16
-2.13012e-16
-2.10323e-16
-2.04681e-16
-2.22344e-16
-2.25035e-16
-2.44035e-16
-2.29241e-16
-2.40402e-16
-2.13098e-16
-2.11046e-16
-2.2045e-16
-2.20623e-16
-2.12477e-16
-2.22842e-16
-2.02313e-16
-2.42631e-16
-2.28417e-16
-2.14914e-16
-2.19459e-16
-2.33959e-16
-2.28189e-16
-2.36772e-16
-2.22347e-16
-2.27147e-16
-2.05089e-16
-2.09577e-16
-2.21684e-16
-2.16455e-16
-2.26515e-16
-2.26058e-16
-2.07203e-16
-2.3548e-16
-2.274e-16
-2.10388e-16
-2.12501e-16
-2.1221e-16
-1.99087e-16
-2.21566e-16
-2.50194e-16
-2.10425e-16
-1.68171e-16
-2.24807e-16
-2.2501e-16
-2.19553e-16
-2.40819e-16
-2.19993e-16
-2.16022e-16
-2.45195e-16
-3.93478e-16
-3.90345e-16
-4.00052e-16
-4.35989e-16
-4.11109e-16
-4.05494e-16
-4.35923e-16
-4.2251e-16