# vtk DataFile Version 1.0
Ion Density - Current Sheet
ASCII
DATASET STRUCTURED_POINTS
DIMENSIONS 256 128 1
ORIGIN 0 0 0
SPACING 0.15625 0.15625 1
POINT_DATA 32768
SCALARS rhoi float
LOOKUP_TABLE default
1.72173e-18
1.46994e-18
1.27407e-18
1.79409e-18
1.69061e-18
1.45058e-18
1.94119e-18
1.84368e-18
1.82325e-18
1.94935e-18
1.76972e-18
1.83084e-18
1.70641e-18
1.65273e-18
1.48095e-18
1.89083e-18
2.1374e-18
1.87182e-18
1.6322e-18
1.29444e-18
1.95431e-18
2.74367e-18
2.04775e-18
1.86423e-18
1.95265e-18
1.70442e-18
2.29473e-18
1.68569e-18
2.10873e-18
1.90994e-18
1.50453e-18
2.2124e-18
1.96638e-18
2.00336e-18
1.42911e-18
1.66366e-18
1.53171e-18
1.42721e-18
2.20213e-18
2.06947e-18
1.577e-18
1.7804e-18
1.60114e-18
1.52844e-18
1.87809e-18
2.08187e-18
1.85235e-18
2.25314e-18
2.221e-18
1.65611e-18
1.67141e-18
1.77254e-18
1.82947e-18
2.04498e-18
1.87191e-18
2.04508e-18
2.0141e-18
1.9583e-18
2.27664e-18
1.54293e-18
1.27269e-18
1.48281e-18
1.99906e-18
1.7801e-18
1.53004e-18
1.6234e-18
1.73088e-18
1.52958e-18
1.54188e-18
1.79008e-18
1.73131e-18
2.1158e-18
1.46981e-18
1.53415e-18
1.72466e-18
1.79049e-18
1.76071e-18
1.84473e-18
1.73414e-18
1.81979e-18
2.02286e-18
1.97933e-18
2.12948e-18
1.76919e-18
2.28852e-18
2.09378e-18
1.97568e-18
2.3019e-18
1.84824e-18
1.32427e-18
1.40177e-18
1.39131e-18
2.06947e-18
1.49103e-18
1.38321e-18
1.60905e-18
1.96495e-18
1.76671e-18
1.66644e-18
1.53702e-18
1.38549e-18
1.67274e-18
1.16296e-18
1.26282e-18
1.86228e-18
1.36676e-18
1.8606e-18
1.80084e-18
1.49007e-18
1.92243e-18
2.05416e-18
1.69267e-18
1.88124e-18
2.01643e-18
1.42783e-18
2.05012e-18
1.42185e-18
1.69484e-18
1.73438e-18
1.47906e-18
1.62715e-18
1.93667e-18
1.93301e-18
2.06331e-18
1.82424e-18
1.83848e-18
1.69215e-18
1.43079e-18
1.43296e-18
1.65619e-18
1.66569e-18
1.25219e-18
1.65952e-18
2.14988e-18
2.55021e-18
1.90237e-18
1.86934e-18
1.68683e-18
2.20392e-18
2.02931e-18
1.62167e-18
1.34709e-18
1.37134e-18
1.60389e-18
1.41746e-18
1.71477e-18
1.60182e-18
1.4244e-18
1.97245e-18
1.84927e-18
1.59118e-18
1.58142e-18
1.96424e-18
1.95454e-18
1.927e-18
1.92684e-18
1.71244e-18
2.04251e-18
1.99763e-18
1.73658e-18
1.8366e-18
1.65063e-18
1.90901e-18
2.58712e-18
2.1782e-18
1.6206e-18
1.99401e-18
1.89656e-18
1.3357e-18
1.48575e-18
1.71692e-18
2.04317e-18
1.92516e-18
1.63832e-18
1.62933e-18
1.85593e-18
1.99594e-18
1.8195e-18
1.96352e-18
1.89703e-18
2.16777e-18
1.84366e-18
2.05538e-18
2.03071e-18
2.10132e-18
1.94232e-18
1.88774e-18
1.52758e-18
2.37004e-18
2.31692e-18
2.4797e-18
2.16491e-18
1.82434e-18
1.61019e-18
1.42435e-18
1.68239e-18
2.13721e-18
1.85366e-18
1.68021e-18
1.66298e-18
1.36905e-18
1.78423e-18
2.08027e-18
2.52915e-18
3.06891e-18
2.11462e-18
1.61153e-18
1.62e-18
1.83708e-18
1.89491e-18
1.72591e-18
1.83022e-18
1.99079e-18
1.51663e-18
1.71266e-18
1.83993e-18
1.75689e-18
2.11561e-18
1.98207e-18
1.33306e-18
2.04406e-18
1.85173e-18
1.02267e-18
1.73324e-18
1.77677e-18
1.28895e-18
1.36779e-18
1.97354e-18
1.53237e-18
1.41702e-18
1.36188e-18
1.41351e-18
1.73464e-18
1.9266e-18
1.70533e-18
1.53136e-18
1.55928e-18
1.38125e-18
2.67427e-18
1.82189e-18
1.59253e-18
2.16685e-18
2.03085e-18
1.53548e-18
1.70826e-18
1.99947e-18
1.64719e-18
1.45081e-18
1.88955e-18
2.19782e-18
2.4253e-18
1.72124e-18
1.97595e-18
1.61058e-18
1.47021e-18
1.48088e-18
2.49407e-18
2.71676e-18
2.28631e-18
2.19235e-18
2.33173e-18
2.53e-18
3.07103e-18
2.85851e-18
3.88304e-18
2.84407e-18
2.4921e-18
2.55771e-18
3.03991e-18
2.76706e-18
2.3538e-18
2.71705e-18
3.00489e-18
2.66825e-18
2.81089e-18
2.3653e-18
2.56812e-18
3.02679e-18
2.89267e-18
2.87424e-18
3.13338e-18
2.73342e-18
2.69319e-18
2.9867e-18
2.87172e-18
3.02921e-18
2.37465e-18
2.80627e-18
2.38814e-18
2.49629e-18
2.99875e-18
2.76475e-18
2.88628e-18
2.76619e-18
2.54462e-18
2.76321e-18
2.76257e-18
2.86775e-18
2.62232e-18
2.43597e-18
2.35185e-18
2.91639e-18
2.83987e-18
2.91991e-18
3.21242e-18
2.9019e-18
2.40272e-18
2.53565e-18
2.72308e-18
2.70903e-18
2.86847e-18
2.60721e-18
2.52127e-18
3.06912e-18
3.3779e-18
3.09221e-18
2.92795e-18
3.22027e-18
3.38159e-18
2.89546e-18
3.3415e-18
2.67903e-18
2.71515e-18
2.41138e-18
2.93984e-18
2.96685e-18
2.699e-18
3.25219e-18
2.85996e-18
3.07936e-18
2.41097e-18
2.80206e-18
2.8933e-18
3.00324e-18
2.621e-18
2.64144e-18
3.10755e-18
2.5935e-18
2.76976e-18
2.90428e-18
3.10426e-18
3.06591e-18
2.57279e-18
2.64595e-18
2.82192e-18
2.77545e-18
2.71662e-18
2.29683e-18
2.48788e-18
2.6752e-18
2.69217e-18
2.78059e-18
3.07322e-18
2.94731e-18
2.98061e-18
2.68022e-18
2.77037e-18
2.28078e-18
2.64157e-18
2.98036e-18
2.69792e-18
2.77387e-18
2.94519e-18
3.18058e-18
2.55876e-18
2.63287e-18
3.14401e-18
2.4178e-18
2.53133e-18
3.61091e-18
3.01797e-18
2.98963e-18
2.65098e-18
2.7196e-18
3.46903e-18
3.14505e-18
3.14541e-18
3.15409e-18
2.82232e-18
2.65288e-18
2.76207e-18
2.84278e-18
2.61679e-18
2.90082e-18
2.44726e-18
2.62317e-18
3.08939e-18
2.40724e-18
2.73047e-18
2.97653e-18
2.95438e-18
2.46303e-18
2.73928e-18
2.88756e-18
2.79456e-18
3.75223e-18
2.98032e-18
2.40408e-18
3.15178e-18
2.92642e-18
2.65158e-18
3.26371e-18
2.90688e-18
2.5563e-18
2.30188e-18
2.78925e-18
2.49204e-18
2.43713e-18
2.97754e-18
3.09727e-18
2.73496e-18
2.72372e-18
3.47558e-18
2.89087e-18
2.75425e-18
2.95142e-18
2.87303e-18
2.94422e-18
2.65936e-18
3.19844e-18
2.72382e-18
2.95989e-18
3.3403e-18
2.89887e-18
2.51531e-18
2.70223e-18
2.46319e-18
2.79371e-18
2.75658e-18
3.10906e-18
2.90029e-18
2.54761e-18
3.05918e-18
2.48686e-18
2.74873e-18
2.61268e-18
2.60366e-18
2.88873e-18
3.06386e-18
3.23648e-18
3.0628e-18
2.8902e-18
2.65877e-18
2.57183e-18
3.12174e-18
3.41628e-18
2.67913e-18
2.52126e-18
3.28952e-18
2.88447e-18
2.63038e-18
2.71461e-18
2.70655e-18
2.6642e-18
3.16874e-18
3.60772e-18
2.93631e-18
2.74631e-18
2.88011e-18
3.10797e-18
3.53846e-18
3.59031e-18
2.81418e-18
2.55412e-18
2.51253e-18
3.1051e-18
2.72024e-18
2.47739e-18
2.70531e-18
3.04898e-18
2.94743e-18
3.0529e-18
2.58191e-18
2.71906e-18
3.31125e-18
2.73649e-18
2.91458e-18
2.70587e-18
2.84016e-18
2.9775e-18
2.85975e-18
2.80489e-18
2.21943e-18
2.76575e-18
3.22879e-18
3.09417e-18
2.17534e-18
2.72484e-18
2.84614e-18
2.84857e-18
2.71077e-18
2.89524e-18
2.85487e-18
2.77408e-18
3.17486e-18
2.91051e-18
2.90631e-18
3.04912e-18
2.36895e-18
2.61572e-18
2.5942e-18
3.06482e-18
2.73777e-18
2.44469e-18
2.92554e-18
3.35247e-18
2.96012e-18
2.83788e-18
2.72361e-18
2.70713e-18
2.8118e-18
2.53949e-18
5.10111e-18
4.91689e-18
4.41951e-18
4.54019e-18
6.00302e-18
4.47827e-18
4.75975e-18
4.36671e-18
4.76548e-18
4.30159e-18
4.43328e-18
4.71073e-18
5.7829e-18
5.63142e-18
4.84577e-18
5.28597e-18
5.42279e-18
4.51297e-18
4.774e-18
5.77622e-18
5.89692e-18
4.7754e-18
4.22527e-18
5.30671e-18
5.66825e-18
5.50462e-18
4.68238e-18
5.08574e-18
5.42795e-18
5.804e-18
4.22595e-18
4.2915e-18
4.58386e-18
5.64582e-18
5.7669e-18
6.28823e-18
5.84639e-18
5.79932e-18
4.76105e-18
4.36224e-18
5.30142e-18
5.87195e-18
5.43211e-18
6.32296e-18
5.2175e-18
5.22498e-18
5.39691e-18
5.3349e-18
5.79036e-18
5.86484e-18
4.47171e-18
5.58563e-18
4.80247e-18
5.24373e-18
5.47388e-18
4.58786e-18
4.42886e-18
5.0533e-18
5.49673e-18
5.97347e-18
5.03431e-18
5.35692e-18
5.17686e-18
5.07781e-18
5.46839e-18
5.50866e-18
5.50751e-18
4.80755e-18
4.98058e-18
5.0898e-18
5.08621e-18
5.2248e-18
6.08691e-18
5.60482e-18
4.67804e-18
4.1337e-18
4.12895e-18
5.30235e-18
5.04928e-18
4.98001e-18
4.54255e-18
4.55269e-18
6.28998e-18
4.81395e-18
5.3667e-18
6.28681e-18
5.22997e-18
5.53676e-18
5.32602e-18
5.50878e-18
5.8888e-18
4.58645e-18
4.67731e-18
5.62257e-18
5.16822e-18
4.95506e-18
4.99795e-18
4.79032e-18
4.51097e-18
4.63133e-18
4.96319e-18
5.772e-18
5.80416e-18
4.78608e-18
4.61332e-18
4.62318e-18
4.55454e-18
5.54307e-18
5.10654e-18
5.01938e-18
5.53712e-18
5.09082e-18
5.02173e-18
4.97449e-18
5.90795e-18
6.37639e-18
6.2441e-18
5.88022e-18
5.28295e-18
5.22003e-18
5.81517e-18
5.42873e-18
5.81907e-18
5.19155e-18
4.84477e-18
4.99859e-18
5.2206e-18
5.78514e-18
5.35882e-18
5.82101e-18
6.62995e-18
5.14002e-18
4.73283e-18
4.43052e-18
4.66316e-18
5.14625e-18
5.00326e-18
5.54988e-18
4.71208e-18
5.19836e-18
4.57383e-18
4.38521e-18
5.34795e-18
4.86631e-18
5.63921e-18
5.20558e-18
5.36128e-18
4.64185e-18
5.34899e-18
4.78723e-18
4.2034e-18
4.51166e-18
5.54836e-18
5.53877e-18
4.80749e-18
4.12201e-18
5.56319e-18
5.1882e-18
7.10174e-18
5.79481e-18
5.7812e-18
5.45021e-18
5.17587e-18
4.93586e-18
4.66416e-18
4.7657e-18
5.62708e-18
5.56354e-18
5.69127e-18
5.05121e-18
5.62958e-18
5.37675e-18
6.21187e-18
5.14874e-18
4.69365e-18
4.94327e-18
5.55092e-18
5.21074e-18
4.57998e-18
5.07879e-18
4.58729e-18
4.31521e-18
4.52088e-18
5.54755e-18
5.60897e-18
5.35432e-18
4.46215e-18
5.0316e-18
4.79142e-18
5.70689e-18
4.73468e-18
4.85887e-18
5.71053e-18
4.25288e-18
5.68485e-18
5.61051e-18
5.08167e-18
4.83364e-18
5.43757e-18
5.48029e-18
5.28101e-18
5.19361e-18
5.56089e-18
6.20524e-18
4.88611e-18
4.82283e-18
5.42883e-18
4.57684e-18
5.04155e-18
5.05996e-18
4.44609e-18
3.70938e-18
4.81671e-18
4.79203e-18
4.98923e-18
4.65646e-18
5.47365e-18
5.16193e-18
5.33656e-18
4.83594e-18
5.4788e-18
4.86434e-18
4.8888e-18
5.3583e-18
4.68914e-18
4.74245e-18
4.3772e-18
5.32498e-18
4.45285e-18
4.7629e-18
4.05702e-18
5.30953e-18
5.1882e-18
5.2583e-18
4.87632e-18
4.4816e-18
5.28163e-18
6.88989e-18
5.67e-18
5.13205e-18
5.58414e-18
4.78984e-18
5.35433e-18
5.18895e-18
4.98214e-18
5.25165e-18
5.23885e-18
5.10471e-18
5.8942e-18
5.57993e-18
5.67983e-18
5.6386e-18
5.14564e-18
4.70472e-18
5.28537e-18
5.53499e-18
9.79496e-18
9.08775e-18
9.28597e-18
1.12676e-17
9.81035e-18
8.41114e-18
9.36355e-18
9.70081e-18
1.03146e-17
9.11385e-18
9.31906e-18
7.74165e-18
9.43045e-18
9.72073e-18
1.00947e-17
1.05131e-17
1.06598e-17
9.75604e-18
1.06957e-17
9.63502e-18
9.98661e-18
1.05489e-17
8.50459e-18
8.75856e-18
9.40735e-18
1.0462e-17
9.73557e-18
1.07893e-17
1.04281e-17
9.32705e-18
1.0039e-17
1.03239e-17
8.9124e-18
1.07928e-17
8.19352e-18
1.07398e-17
1.17306e-17
8.96375e-18
9.55083e-18
8.79714e-18
9.5721e-18
7.99726e-18
8.65809e-18
1.25992e-17
9.12285e-18
8.32735e-18
1.06032e-17
1.11797e-17
1.14344e-17
1.01814e-17
9.66441e-18
8.70992e-18
8.24723e-18
1.07838e-17
9.23379e-18
9.19406e-18
1.06548e-17
1.031e-17
8.91448e-18
8.71953e-18
7.87185e-18
9.45563e-18
1.15756e-17
1.04304e-17
1.01458e-17
9.98424e-18
1.14196e-17
9.65121e-18
9.64668e-18
1.05226e-17
1.16918e-17
1.01408e-17
9.97726e-18
9.06091e-18
9.95586e-18
1.00878e-17
9.82141e-18
9.71983e-18
9.23611e-18
1.03106e-17
1.03118e-17
9.18654e-18
9.71351e-18
8.90975e-18
1.03656e-17
9.15948e-18
9.54557e-18
1.03835e-17
9.69441e-18
9.9788e-18
1.12585e-17
9.41363e-18
9.79674e-18
1.1511e-17
8.8756e-18
1.03499e-17
1.04217e-17
1.01492e-17
1.10501e-17
1.01707e-17
1.06135e-17
1.17739e-17
9.27633e-18
8.84319e-18
9.04577e-18
8.55338e-18
7.93312e-18
9.43771e-18
9.93807e-18
9.30748e-18
1.02851e-17
9.03439e-18
9.78316e-18
1.09631e-17
1.21466e-17
9.5541e-18
1.00721e-17
1.06483e-17
1.01019e-17
1.011e-17
1.15119e-17
1.00291e-17
1.01405e-17
8.31253e-18
9.58265e-18
9.74485e-18
1.05458e-17
1.02549e-17
1.03563e-17
9.85132e-18
7.56756e-18
8.35257e-18
9.11675e-18
9.07797e-18
9.68765e-18
9.3902e-18
8.26666e-18
1.04417e-17
1.05329e-17
9.12018e-18
9.75857e-18
9.84645e-18
1.06076e-17
1.02243e-17
1.07821e-17
1.024e-17
1.08195e-17
9.47199e-18
9.35275e-18
8.60988e-18
8.78427e-18
9.57915e-18
8.32322e-18
8.21464e-18
9.22548e-18
1.00286e-17
9.46613e-18
8.59205e-18
9.88932e-18
8.15809e-18
1.01989e-17
9.54892e-18
9.49168e-18
9.38479e-18
1.04859e-17
9.4615e-18
9.45483e-18
9.9886e-18
9.78477e-18
1.02547e-17
1.06474e-17
1.13965e-17
1.36911e-17
1.03102e-17
9.25822e-18
8.95795e-18
1.04012e-17
8.28709e-18
1.20116e-17
9.29952e-18
9.10106e-18
1.02139e-17
9.76543e-18
9.6406e-18
9.06547e-18
9.13851e-18
1.05435e-17
1.03897e-17
1.06829e-17
1.03682e-17
1.03497e-17
9.17844e-18
9.21346e-18
1.01619e-17
9.35433e-18
8.4874e-18
9.05496e-18
9.91405e-18
8.81755e-18
8.30281e-18
1.01169e-17
1.08951e-17
9.96178e-18
1.06174e-17
9.76823e-18
9.56093e-18
1.1092e-17
9.64137e-18
1.00342e-17
9.90257e-18
8.94536e-18
1.02165e-17
9.64398e-18
9.08778e-18
9.37279e-18
9.70426e-18
8.20345e-18
8.71146e-18
9.21234e-18
7.69105e-18
7.78187e-18
1.18384e-17
1.12421e-17
8.26086e-18
8.25465e-18
1.00151e-17
9.59803e-18
9.46128e-18
1.06084e-17
8.94224e-18
9.07481e-18
1.03845e-17
1.07231e-17
9.51301e-18
8.12014e-18
8.03542e-18
8.31243e-18
9.1998e-18
9.39366e-18
9.88961e-18
9.72594e-18
8.90136e-18
9.16417e-18
9.69395e-18
8.19686e-18
8.80708e-18
1.06231e-17
1.02375e-17
1.13458e-17
8.15489e-18
8.80322e-18
9.64391e-18
9.67215e-18
9.84311e-18
1.07558e-17
9.33488e-18
2.08164e-17
1.89449e-17
2.09489e-17
2.27322e-17
2.00081e-17
1.74791e-17
1.78895e-17
1.66462e-17
2.09091e-17
1.87157e-17
1.58534e-17
1.40696e-17
1.85434e-17
1.55393e-17
1.90619e-17
2.11532e-17
1.7777e-17
1.78014e-17
2.12732e-17
1.6635e-17
1.68632e-17
1.66707e-17
1.9217e-17
1.6216e-17
1.57915e-17
1.85922e-17
2.19886e-17
1.69211e-17
1.75544e-17
1.94311e-17
2.21574e-17
2.14609e-17
1.53e-17
1.7099e-17
1.65715e-17
1.67321e-17
2.06431e-17
1.96821e-17
2.05689e-17
1.7345e-17
1.82308e-17
2.02274e-17
2.05466e-17
1.85596e-17
1.73727e-17
1.82496e-17
1.63796e-17
1.98434e-17
2.13221e-17
1.69961e-17
1.61548e-17
1.81218e-17
1.58344e-17
1.70539e-17
1.7876e-17
1.83039e-17
1.80485e-17
1.803e-17
1.71934e-17
1.68739e-17
1.69501e-17
1.88414e-17
1.89578e-17
1.5244e-17
1.72103e-17
2.09132e-17
1.78226e-17
1.70212e-17
1.93175e-17
1.83213e-17
1.84187e-17
1.94142e-17
1.80642e-17
1.71272e-17
1.4138e-17
1.84302e-17
2.02557e-17
1.90884e-17
1.92535e-17
1.82739e-17
2.00384e-17
1.88972e-17
1.76397e-17
1.62821e-17
1.8963e-17
1.72871e-17
1.80055e-17
1.68889e-17
1.69671e-17
1.52005e-17
1.89775e-17
1.66415e-17
1.71946e-17
1.65264e-17
1.86987e-17
1.9646e-17
1.84263e-17
1.59002e-17
1.74146e-17
1.81854e-17
1.88958e-17
1.77746e-17
1.86456e-17
1.7983e-17
1.77459e-17
1.76824e-17
1.8675e-17
1.93826e-17
1.71292e-17
1.68983e-17
1.99518e-17
1.76795e-17
1.85348e-17
1.83874e-17
1.83113e-17
1.65403e-17
1.77907e-17
1.80814e-17
2.11073e-17
2.24577e-17
2.04099e-17
1.84148e-17
1.54442e-17
1.77189e-17
1.87601e-17
1.77385e-17
1.58682e-17
2.07645e-17
1.79069e-17
1.93867e-17
1.59492e-17
1.70353e-17
1.81207e-17
1.68112e-17
1.95699e-17
1.92256e-17
1.85596e-17
1.76483e-17
2.05162e-17
1.99223e-17
1.67896e-17
1.55807e-17
2.12812e-17
1.78925e-17
1.91423e-17
1.74255e-17
1.94663e-17
1.88031e-17
1.8308e-17
1.79085e-17
1.91556e-17
1.85234e-17
1.80469e-17
1.4181e-17
1.47102e-17
2.20128e-17
2.05654e-17
1.50526e-17
1.55066e-17
1.68091e-17
2.12675e-17
1.98565e-17
1.76025e-17
1.46041e-17
1.6742e-17
1.6683e-17
1.58301e-17
1.79329e-17
1.79836e-17
1.98219e-17
1.63992e-17
1.71306e-17
1.98526e-17
2.06783e-17
1.83231e-17
1.78333e-17
2.05059e-17
1.81549e-17
1.88802e-17
1.9683e-17
1.73015e-17
1.94585e-17
1.51148e-17
1.77547e-17
1.93645e-17
1.71312e-17
1.96365e-17
1.80935e-17
2.37465e-17
1.87042e-17
1.88762e-17
1.73934e-17
1.77181e-17
1.52315e-17
1.70794e-17
1.70444e-17
1.71504e-17
1.66988e-17
1.73455e-17
1.69349e-17
1.94806e-17
1.90136e-17
1.797e-17
2.10155e-17
1.95656e-17
1.78605e-17
2.04536e-17
2.13953e-17
1.76112e-17
1.75931e-17
1.7171e-17
1.92946e-17
1.85038e-17
1.74772e-17
1.83247e-17
1.75843e-17
1.33601e-17
1.7455e-17
1.92437e-17
1.90844e-17
1.39948e-17
1.62854e-17
1.60207e-17
1.67298e-17
1.68436e-17
1.73476e-17
1.90177e-17
1.92739e-17
1.76959e-17
2.15187e-17
2.03412e-17
1.91872e-17
1.65884e-17
1.63634e-17
1.61902e-17
1.61636e-17
1.54389e-17
1.45927e-17
1.67983e-17
1.83854e-17
1.7477e-17
1.68297e-17
2.0058e-17
1.86444e-17
1.89077e-17
1.9871e-17
1.77547e-17
1.80583e-17
1.85266e-17
1.56702e-17
1.64334e-17
1.95043e-17
1.83638e-17
1.59008e-17
1.54882e-17
1.81062e-17
3.1932e-17
3.35416e-17
3.25364e-17
3.54607e-17
3.37405e-17
3.56835e-17
3.46067e-17
2.89386e-17
3.06411e-17
3.25234e-17
3.56419e-17
3.37498e-17
3.41885e-17
2.97053e-17
2.77527e-17
4.24664e-17
3.63818e-17
3.10338e-17
3.22179e-17
3.27879e-17
2.95164e-17
3.09705e-17
3.42863e-17
3.33134e-17
3.48334e-17
3.74588e-17
3.55758e-17
2.70239e-17
3.3282e-17
3.40773e-17
3.02872e-17
2.84595e-17
3.03118e-17
3.08932e-17
3.37638e-17
3.97455e-17
3.74405e-17
3.79105e-17
3.72145e-17
3.27825e-17
3.76146e-17
4.11832e-17
4.20697e-17
3.02154e-17
3.70669e-17
3.6329e-17
3.1766e-17
3.2965e-17
3.8405e-17
3.59124e-17
3.90795e-17
3.70903e-17
3.37153e-17
3.51026e-17
3.06717e-17
3.55139e-17
4.80702e-17
3.66348e-17
3.31029e-17
3.2529e-17
3.59823e-17
3.43626e-17
3.37783e-17
3.39768e-17
2.94851e-17
3.44274e-17
3.58085e-17
3.44068e-17
3.77402e-17
3.701e-17
3.2531e-17
3.72127e-17
3.73017e-17
3.35032e-17
3.2864e-17
3.83428e-17
3.78634e-17
3.14043e-17
3.27175e-17
3.14846e-17
2.90862e-17
3.10503e-17
3.43698e-17
3.45982e-17
3.36771e-17
3.1063e-17
3.39893e-17
3.5001e-17
3.05991e-17
2.80954e-17
3.55248e-17
3.47968e-17
3.39029e-17
3.56221e-17
3.60882e-17
4.05365e-17
2.90516e-17
3.1304e-17
3.20678e-17
2.78028e-17
3.33547e-17
3.36913e-17
3.52266e-17
3.66175e-17
3.5976e-17
3.67343e-17
3.5344e-17
3.81991e-17
3.61756e-17
3.05946e-17
3.74943e-17
3.76974e-17
3.76172e-17
3.93288e-17
3.45928e-17
3.30845e-17
2.79952e-17
3.5843e-17
4.09026e-17
3.68372e-17
3.76225e-17
3.07263e-17
3.20689e-17
2.96892e-17
3.34688e-17
3.04448e-17
2.90953e-17
3.39309e-17
3.40356e-17
3.1306e-17
3.02154e-17
3.38433e-17
3.16902e-17
3.18237e-17
2.83208e-17
3.39658e-17
3.19988e-17
3.0065e-17
2.8518e-17
3.46996e-17
3.32163e-17
3.36173e-17
4.29428e-17
3.63346e-17
3.3619e-17
3.12038e-17
2.8255e-17
2.67901e-17
3.41727e-17
3.37454e-17
3.81155e-17
3.96998e-17
3.4081e-17
3.10325e-17
3.29684e-17
3.32649e-17
3.4865e-17
3.32723e-17
3.50868e-17
2.92573e-17
3.44246e-17
3.85326e-17
3.20467e-17
3.27948e-17
3.72827e-17
3.21268e-17
3.73636e-17
3.33135e-17
3.62565e-17
3.62754e-17
2.90166e-17
3.37919e-17
3.77623e-17
3.35908e-17
3.7324e-17
3.25219e-17
3.62471e-17
3.78307e-17
3.17458e-17
3.15578e-17
3.34845e-17
3.81475e-17
3.34126e-17
3.34144e-17
4.06217e-17
3.78341e-17
3.45017e-17
3.44473e-17
3.84169e-17
3.18183e-17
3.23568e-17
2.83301e-17
3.91287e-17
3.42311e-17
3.82266e-17
3.21159e-17
3.30695e-17
3.82943e-17
3.46729e-17
3.15369e-17
3.92198e-17
3.78097e-17
3.43302e-17
3.38277e-17
2.91363e-17
3.26952e-17
3.56545e-17
3.6192e-17
3.01389e-17
3.81519e-17
3.39309e-17
3.50997e-17
3.13826e-17
2.99736e-17
3.43466e-17
3.17023e-17
2.67304e-17
3.52959e-17
3.3157e-17
3.71014e-17
2.76836e-17
3.66607e-17
3.15675e-17
2.85645e-17
3.43778e-17
3.54056e-17
3.48535e-17
3.48489e-17
3.38357e-17
3.92166e-17
3.65358e-17
3.312e-17
3.17538e-17
3.33588e-17
4.22006e-17
3.6028e-17
2.95952e-17
3.06381e-17
2.79618e-17
2.86771e-17
3.40695e-17
3.14299e-17
3.39334e-17
3.40822e-17
3.83276e-17
3.59764e-17
3.10905e-17
3.01449e-17
3.26837e-17
3.30034e-17
3.30964e-17
3.54949e-17
3.5393e-17
3.38121e-17
3.61423e-17
3.40558e-17
6.07389e-17
7.74023e-17
5.66561e-17
5.66611e-17
6.43322e-17
6.36604e-17
6.4977e-17
5.99745e-17
5.90024e-17
5.36357e-17
6.85423e-17
7.40321e-17
5.91804e-17
5.95098e-17
6.24127e-17
6.44225e-17
6.44342e-17
5.37904e-17
5.2032e-17
5.41302e-17
5.77404e-17
6.84725e-17
5.7932e-17
6.82799e-17
7.93802e-17
6.3529e-17
7.01536e-17
7.27244e-17
6.21604e-17
5.44471e-17
5.43746e-17
6.22172e-17
6.84621e-17
6.21728e-17
7.03349e-17
6.84699e-17
5.08006e-17
7.45157e-17
5.70204e-17
6.77788e-17
7.14736e-17
8.28109e-17
5.77002e-17
6.84537e-17
6.95677e-17
6.04341e-17
5.98581e-17
6.08921e-17
6.60076e-17
7.08476e-17
6.86517e-17
6.24278e-17
6.47675e-17
7.32575e-17
6.82894e-17
7.10825e-17
6.75779e-17
6.39933e-17
6.43875e-17
6.72599e-17
5.60376e-17
6.55776e-17
6.99986e-17
6.09054e-17
5.78794e-17
5.86299e-17
6.50893e-17
6.40229e-17
5.90795e-17
5.83395e-17
6.42759e-17
5.66897e-17
5.58089e-17
5.88332e-17
5.75014e-17
6.75427e-17
7.40284e-17
5.47646e-17
5.56274e-17
6.91235e-17
5.49745e-17
6.03664e-17
6.57056e-17
7.18876e-17
6.23375e-17
6.10709e-17
6.32132e-17
6.45407e-17
5.22011e-17
5.30969e-17
6.16323e-17
6.78609e-17
6.56302e-17
6.15633e-17
7.7458e-17
7.42422e-17
5.03061e-17
6.30519e-17
6.1367e-17
6.07582e-17
6.11932e-17
6.30928e-17
6.64905e-17
7.01369e-17
6.91141e-17
5.92094e-17
5.76595e-17
6.42976e-17
6.52612e-17
5.13367e-17
5.63955e-17
7.80009e-17
7.44402e-17
5.51877e-17
7.16005e-17
6.40478e-17
5.9085e-17
6.23482e-17
5.37939e-17
5.65001e-17
5.91938e-17
5.55173e-17
6.12876e-17
7.83911e-17
7.22046e-17
5.59218e-17
5.55936e-17
5.70284e-17
5.6877e-17
7.20261e-17
6.52439e-17
7.14608e-17
6.04602e-17
6.11869e-17
6.31136e-17
5.73033e-17
7.3177e-17
6.01036e-17
5.09242e-17
6.00995e-17
5.78638e-17
6.24558e-17
5.71494e-17
5.45657e-17
6.45276e-17
7.27039e-17
6.46333e-17
6.85009e-17
6.21868e-17
6.08331e-17
6.6715e-17
6.60137e-17
5.82424e-17
5.7422e-17
6.03371e-17
6.29576e-17
5.61137e-17
5.72872e-17
6.6866e-17
6.01766e-17
6.1983e-17
7.87567e-17
6.29566e-17
5.95523e-17
7.6018e-17
6.27266e-17
5.78303e-17
6.44999e-17
7.42954e-17
6.46677e-17
5.31161e-17
6.88709e-17
6.82685e-17
5.96504e-17
6.30295e-17
6.43455e-17
6.02501e-17
6.0915e-17
6.85469e-17
6.1107e-17
6.1835e-17
7.18328e-17
6.22077e-17
5.55257e-17
6.93505e-17
6.20801e-17
6.49723e-17
7.65302e-17
6.6498e-17
5.77361e-17
5.41845e-17
6.33207e-17
7.27566e-17
6.09092e-17
6.58184e-17
5.48691e-17
6.88815e-17
6.14452e-17
5.68321e-17
6.98144e-17
6.87978e-17
6.16528e-17
6.12724e-17
6.80027e-17
6.11071e-17
6.3139e-17
5.72389e-17
6.08878e-17
5.99091e-17
5.93323e-17
6.8326e-17
5.66231e-17
6.33548e-17
6.76637e-17
6.40724e-17
6.13955e-17
6.13519e-17
7.46003e-17
6.66118e-17
6.49998e-17
6.24677e-17
7.13863e-17
5.94419e-17
5.80014e-17
6.78295e-17
6.02108e-17
5.7552e-17
5.9192e-17
5.22717e-17
5.30201e-17
6.09665e-17
6.46071e-17
6.87921e-17
7.39287e-17
6.62156e-17
6.62822e-17
5.57029e-17
6.49585e-17
6.14623e-17
5.79871e-17
5.22578e-17
6.37273e-17
6.99638e-17
6.6972e-17
6.59362e-17
6.48069e-17
6.68525e-17
6.70768e-17
5.35322e-17
7.37479e-17
7.53138e-17
5.87397e-17
5.85236e-17
7.11618e-17
6.23752e-17
6.30566e-17
1.26342e-16
1.08517e-16
1.11554e-16
1.0829e-16
1.11189e-16
1.28022e-16
1.43145e-16
8.87417e-17
1.17539e-16
1.11024e-16
1.08153e-16
1.15984e-16
1.0838e-16
1.05516e-16
1.20213e-16
1.03946e-16
1.1069e-16
9.62737e-17
1.01308e-16
1.18659e-16
1.40159e-16
1.04653e-16
1.30178e-16
1.23178e-16
1.11297e-16
1.126e-16
1.22667e-16
1.19062e-16
9.71625e-17
1.04562e-16
1.35685e-16
1.40141e-16
1.32493e-16
1.30867e-16
1.15406e-16
1.2757e-16
1.03977e-16
1.21334e-16
1.28551e-16
1.13063e-16
1.12877e-16
1.18427e-16
1.23189e-16
1.29926e-16
1.33039e-16
1.10497e-16
1.27291e-16
1.24165e-16
1.00499e-16
1.19494e-16
1.17006e-16
1.44505e-16
1.16181e-16
1.22652e-16
1.23888e-16
1.14832e-16
1.34112e-16
1.42719e-16
1.47794e-16
1.25984e-16
1.24673e-16
1.18379e-16
1.33881e-16
9.75369e-17
1.10052e-16
1.17689e-16
1.3985e-16
1.34139e-16
1.07924e-16
1.10687e-16
9.85726e-17
1.14668e-16
1.08781e-16
1.38136e-16
1.1333e-16
1.25134e-16
1.48709e-16
1.37514e-16
1.22774e-16
1.00372e-16
8.85228e-17
1.26776e-16
1.35166e-16
1.3181e-16
1.15375e-16
1.15634e-16
1.12925e-16
1.3747e-16
1.2532e-16
1.20794e-16
1.15682e-16
1.32254e-16
1.10449e-16
1.12798e-16
1.15967e-16
1.11864e-16
1.31301e-16
1.27524e-16
1.15289e-16
1.29219e-16
1.15951e-16
1.22433e-16
1.22491e-16
1.20105e-16
1.37304e-16
1.13685e-16
1.01525e-16
1.09395e-16
1.16983e-16
1.19916e-16
1.18668e-16
1.20464e-16
1.19286e-16
1.08508e-16
1.23319e-16
1.29308e-16
1.13376e-16
1.06592e-16
9.41742e-17
9.43593e-17
9.42514e-17
1.05811e-16
1.04865e-16
1.1569e-16
1.31581e-16
1.05093e-16
1.15889e-16
1.07231e-16
1.22537e-16
1.19933e-16
1.15029e-16
1.20216e-16
1.13686e-16
1.3378e-16
9.93916e-17
1.10439e-16
1.12282e-16
1.13809e-16
1.05932e-16
1.20531e-16
1.19887e-16
1.15631e-16
1.10247e-16
1.02003e-16
1.27686e-16
1.26591e-16
1.27103e-16
1.36964e-16
1.19075e-16
1.00723e-16
1.00542e-16
1.34668e-16
1.20026e-16
1.17739e-16
1.19145e-16
1.0698e-16
1.19082e-16
1.09768e-16
1.18953e-16
1.27966e-16
1.09272e-16
1.17306e-16
1.40053e-16
1.2162e-16
9.98168e-17
1.02157e-16
1.28048e-16
1.14956e-16
1.05894e-16
1.24061e-16
1.23894e-16
1.12296e-16
1.11245e-16
1.0631e-16
1.13689e-16
1.19573e-16
1.46841e-16
1.29255e-16
1.40331e-16
1.34508e-16
1.35352e-16
1.26411e-16
1.05631e-16
1.12809e-16
1.32256e-16
1.3716e-16
1.20915e-16
1.21711e-16
1.24215e-16
1.27689e-16
1.11194e-16
1.11139e-16
1.15439e-16
1.12933e-16
1.32917e-16
1.02886e-16
1.21376e-16
1.18031e-16
1.01751e-16
1.01564e-16
1.10034e-16
1.25992e-16
1.12571e-16
1.16922e-16
1.00176e-16
1.13487e-16
1.33475e-16
1.15081e-16
1.09916e-16
1.14696e-16
1.25493e-16
9.92794e-17
1.02574e-16
1.03832e-16
1.18041e-16
1.41926e-16
1.11192e-16
1.3126e-16
1.2087e-16
1.30251e-16
1.32935e-16
1.36496e-16
1.25887e-16
1.143e-16
1.23929e-16
1.1032e-16
1.24894e-16
1.03836e-16
1.19724e-16
1.2621e-16
1.29594e-16
1.13606e-16
1.1777e-16
1.20585e-16
1.08904e-16
1.10065e-16
1.07863e-16
1.21066e-16
1.42748e-16
1.23263e-16
1.06569e-16
1.26459e-16
1.15678e-16
1.1556e-16
1.29495e-16
1.22789e-16
1.10505e-16
1.43594e-16
1.17204e-16
1.26022e-16
1.2926e-16
1.18095e-16
1.07209e-16
1.07256e-16
1.13613e-16
1.22369e-16
2.27422e-16
2.31886e-16
2.22595e-16
2.09881e-16
2.22358e-16
2.90285e-16
2.25462e-16
2.05356e-16
2.45255e-16
2.37861e-16
2.32579e-16
1.88734e-16
1.81362e-16
2.30766e-16
2.12897e-16
1.85569e-16
2.73482e-16
2.23835e-16
2.18855e-16
2.07134e-16
2.34779e-16
1.71404e-16
2.32576e-16
2.67663e-16
2.30918e-16
2.52009e-16
2.04251e-16
2.1978e-16
1.98862e-16
2.07634e-16
2.41443e-16
2.16155e-16
2.33208e-16
2.2202e-16
2.0952e-16
2.48521e-16
2.06207e-16
2.19548e-16
2.42003e-16
2.30448e-16
2.16667e-16
1.91525e-16
2.35235e-16
2.20616e-16
2.48957e-16
2.08748e-16
2.03206e-16
1.93857e-16
2.0536e-16
2.49465e-16
2.43645e-16
2.69617e-16
2.38931e-16
2.34853e-16
2.47986e-16
2.16013e-16
2.17921e-16
2.24914e-16
2.42085e-16
2.45402e-16
2.11285e-16
2.03063e-16
1.99559e-16
1.97895e-16
2.00391e-16
1.87798e-16
2.12168e-16
2.26163e-16
2.25086e-16
2.31897e-16
2.43869e-16
2.15275e-16
2.25732e-16
2.27749e-16
1.90504e-16
2.01592e-16
2.26111e-16
2.41289e-16
3.15677e-16
2.75139e-16
2.33457e-16
2.50593e-16
2.19052e-16
2.033e-16
2.27241e-16
2.21404e-16
1.92221e-16
1.89256e-16
1.89765e-16
2.2345e-16
2.27163e-16
2.54395e-16
1.94045e-16
2.20041e-16
2.44878e-16
1.99568e-16
2.33755e-16
2.47826e-16
2.3717e-16
2.22634e-16
2.17186e-16
2.08704e-16
2.5024e-16
2.52502e-16
2.2982e-16
2.28692e-16
2.36188e-16
2.03987e-16
2.07261e-16
2.06388e-16
2.33271e-16
2.57913e-16
2.31102e-16
1.87357e-16
2.1557e-16
1.9541e-16
2.43031e-16
2.25525e-16
2.09411e-16
2.11958e-16
2.09031e-16
1.99763e-16
2.08831e-16
2.11651e-16
1.86496e-16
2.23152e-16
2.39373e-16
1.97191e-16
1.94412e-16
1.88196e-16
1.83373e-16
2.26286e-16
2.25485e-16
2.50736e-16
2.42702e-16
2.11713e-16
2.23772e-16
2.38845e-16
2.41199e-16
2.33264e-16
2.25426e-16
2.19243e-16
2.0297e-16
2.05183e-16
2.05354e-16
2.46397e-16
2.52233e-16
2.24987e-16
2.58554e-16
2.55399e-16
2.25762e-16
2.51354e-16
2.31951e-16
2.40064e-16
2.50561e-16
2.10874e-16
2.08759e-16
1.58191e-16
2.0657e-16
2.57662e-16
2.70239e-16
2.56383e-16
2.33664e-16
2.34247e-16
2.03027e-16
1.98836e-16
2.16006e-16
2.05717e-16
2.15917e-16
2.01894e-16
2.21723e-16
2.18839e-16
2.32494e-16
2.13739e-16
2.17406e-16
2.70614e-16
2.32384e-16
1.99459e-16
2.25203e-16
2.23203e-16
2.21056e-16
2.07048e-16
1.92433e-16
2.30277e-16
2.70452e-16
1.94273e-16
2.04213e-16
2.28657e-16
2.02576e-16
1.94897e-16
2.10109e-16
2.09308e-16
2.0411e-16
2.28579e-16
2.09726e-16
1.97521e-16
2.34058e-16
2.22587e-16
2.08663e-16
2.20049e-16
2.1281e-16
2.00602e-16
2.22864e-16
2.12221e-16
2.00985e-16
2.19226e-16
2.68322e-16
1.91362e-16
2.48134e-16
2.63273e-16
2.37737e-16
2.03744e-16
2.23395e-16
2.00219e-16
2.42246e-16
2.51673e-16
2.09342e-16
2.6128e-16
2.21959e-16
2.09128e-16
2.16155e-16
2.06659e-16
2.4775e-16
2.08975e-16
2.1162e-16
2.31993e-16
2.31701e-16
2.09707e-16
2.32254e-16
2.48939e-16
2.31883e-16
2.62903e-16
2.12068e-16
2.21637e-16
2.31132e-16
2.37326e-16
2.37724e-16
2.36868e-16
2.41607e-16
1.97544e-16
2.51542e-16
2.38927e-16
2.1439e-16
2.30249e-16
2.22097e-16
1.89619e-16
2.21204e-16
1.72838e-16
2.34649e-16
2.61293e-16
2.72438e-16
2.27853e-16
1.91415e-16
1.86569e-16
2.52151e-16
2.25825e-16
4.45937e-16
3.98165e-16
3.38878e-16
3.55426e-16
4.45215e-16
4.39103e-16
3.20396e-16
3.85745e-16
4.56882e-16
4.43259e-16
4.78509e-16
3.81499e-16
3.38096e-16
4.58173e-16
4.92143e-16
4.2997e-16
4.81599e-16
4.61888e-16
3.54759e-16
3.92803e-16
3.98099e-16
3.5967e-16
4.06017e-16
3.99276e-16
4.69474e-16
4.97532e-16
4.043e-16
3.91225e-16
3.72336e-16
4.39109e-16
3.947e-16
4.04244e-16
4.04943e-16
4.21045e-16
4.16426e-16
4.0432e-16
4.74169e-16
4.86719e-16
4.01996e-16
3.30465e-16
4.10916e-16
4.10465e-16
3.46104e-16
4.19816e-16
4.8724e-16
4.40805e-16
4.27775e-16
3.74252e-16
4.26611e-16
4.46774e-16
4.40888e-16
4.5477e-16
4.44858e-16
3.71692e-16
3.74619e-16
4.13586e-16
3.99603e-16
3.23885e-16
3.9108e-16
3.85545e-16
3.9717e-16
3.81732e-16
4.17423e-16
3.93746e-16
3.86063e-16
3.3307e-16
4.15386e-16
3.93111e-16
4.44749e-16
4.81332e-16
3.86324e-16
3.35284e-16
3.98566e-16
4.33309e-16
4.33969e-16
4.26862e-16
4.45735e-16
4.05953e-16
4.59577e-16
4.01055e-16
3.31685e-16
3.76387e-16
3.91932e-16
4.55172e-16
3.59183e-16
3.77388e-16
4.38563e-16
3.92499e-16
3.577e-16
4.20926e-16
4.07525e-16
4.0086e-16
3.89045e-16
3.80089e-16
4.23509e-16
4.50928e-16
3.62697e-16
4.09104e-16
3.88491e-16
4.20999e-16
4.67834e-16
5.50349e-16
4.17819e-16
4.26714e-16
4.5512e-16
4.4201e-16
3.71556e-16
4.05691e-16
4.25505e-16
4.39113e-16
4.02638e-16
3.88964e-16
3.88198e-16
3.36731e-16
3.96239e-16
3.41817e-16
3.66205e-16
4.022e-16
4.43635e-16
3.57558e-16
4.11213e-16
3.71111e-16
3.77508e-16
3.99526e-16
3.45773e-16
3.2197e-16
3.73041e-16
3.90646e-16
4.71627e-16
4.07952e-16
3.7842e-16
3.53499e-16
3.97117e-16
4.2571e-16
3.91594e-16
3.74656e-16
3.8922e-16
4.303e-16
3.49702e-16
3.78904e-16
4.15215e-16
4.63887e-16
4.93866e-16
4.45222e-16
4.00953e-16
4.18183e-16
3.90335e-16
3.90137e-16
4.23361e-16
3.7019e-16
4.36204e-16
4.13129e-16
4.52214e-16
4.008e-16
5.33169e-16
4.73635e-16
4.13676e-16
4.26442e-16
3.85413e-16
3.71129e-16
4.28262e-16
4.11066e-16
3.83086e-16
3.77617e-16
4.43571e-16
4.51555e-16
4.02426e-16
3.91792e-16
3.73921e-16
4.25637e-16
4.67914e-16
4.2207e-16
4.50888e-16
4.05721e-16
4.2569e-16
4.01892e-16
4.14123e-16
3.72264e-16
3.66438e-16
4.01804e-16
3.99574e-16
4.07671e-16
3.93049e-16
4.54989e-16
3.84679e-16
3.11488e-16
3.73552e-16
3.33291e-16
4.19382e-16
4.80573e-16
4.37189e-16
4.00621e-16
3.77589e-16
4.61413e-16
4.43884e-16
4.13412e-16
4.13306e-16
4.15247e-16
3.85392e-16
3.66284e-16
3.8181e-16
3.76889e-16