# vtk DataFile Version 1.0
Ion Density - Current Sheet
ASCII
DATASET STRUCTURED_POINTS
DIMENSIONS 256 128 1
ORIGIN 0 0 0
SPACING 0.15625 0.15625 1
POINT_DATA 32768
SCALARS rhoi float
LOOKUP_TABLE default
1.57958e-18
1.388e-18
1.38948e-18
1.635e-18
1.78002e-18
1.7306e-18
1.89029e-18
1.82091e-18
1.68137e-18
1.71429e-18
1.96216e-18
2.20522e-18
1.97975e-18
1.57231e-18
1.42938e-18
1.66642e-18
1.86119e-18
2.09974e-18
1.82485e-18
1.50642e-18
2.0275e-18
1.95601e-18
2.22199e-18
1.88143e-18
1.90482e-18
2.17403e-18
2.15126e-18
1.68259e-18
1.89349e-18
2.4949e-18
1.79962e-18
1.96608e-18
1.75719e-18
2.21052e-18
1.8282e-18
1.94102e-18
1.69522e-18
1.93043e-18
2.20987e-18
1.88224e-18
1.60104e-18
1.94508e-18
1.82371e-18
1.52503e-18
1.63192e-18
1.86889e-18
1.73762e-18
2.03394e-18
1.8852e-18
1.72103e-18
1.80036e-18
1.69722e-18
1.80795e-18
1.49755e-18
1.79828e-18
1.88301e-18
1.82064e-18
1.75248e-18
1.85252e-18
2.00773e-18
1.88085e-18
1.65947e-18
1.96284e-18
1.91797e-18
1.91631e-18
1.87459e-18
1.6306e-18
1.60593e-18
1.52891e-18
1.52919e-18
2.09668e-18
2.08184e-18
1.61885e-18
1.61937e-18
1.66463e-18
1.33044e-18
1.66685e-18
1.99705e-18
1.72915e-18
1.82058e-18
1.80593e-18
2.25991e-18
1.89294e-18
1.55768e-18
2.0175e-18
2.20067e-18
1.83955e-18
1.81526e-18
1.87831e-18
1.58664e-18
1.62632e-18
1.401e-18
1.93366e-18
1.61102e-18
1.37093e-18
2.02903e-18
1.76049e-18
2.08765e-18
1.73342e-18
1.72965e-18
1.61332e-18
1.56567e-18
1.378e-18
1.42269e-18
1.78843e-18
1.51771e-18
1.86771e-18
2.02481e-18
1.84672e-18
1.84471e-18
1.89749e-18
2.24462e-18
1.91856e-18
1.81069e-18
2.04079e-18
1.61932e-18
1.52109e-18
1.78844e-18
1.92564e-18
1.61654e-18
1.56876e-18
1.79422e-18
1.73602e-18
1.75522e-18
2.12973e-18
1.88013e-18
1.73007e-18
1.53078e-18
1.48799e-18
1.65314e-18
1.74362e-18
1.60672e-18
1.67343e-18
1.98205e-18
2.11604e-18
2.07628e-18
1.92564e-18
2.00958e-18
2.00934e-18
1.7967e-18
1.86133e-18
1.5826e-18
1.49343e-18
1.48793e-18
1.93425e-18
1.8984e-18
1.31962e-18
1.58439e-18
2.03493e-18
1.94672e-18
1.69645e-18
1.74134e-18
1.95062e-18
1.9914e-18
2.03317e-18
2.05212e-18
1.99509e-18
1.87756e-18
2.07069e-18
1.89687e-18
1.91462e-18
1.61142e-18
1.64956e-18
1.51358e-18
1.74353e-18
1.83576e-18
1.77767e-18
1.86109e-18
1.61233e-18
1.46108e-18
1.8962e-18
1.95108e-18
1.45262e-18
1.60433e-18
1.90574e-18
1.67146e-18
1.79839e-18
2.07739e-18
2.05931e-18
1.9164e-18
2.04095e-18
1.97034e-18
2.29775e-18
1.96434e-18
2.04143e-18
1.84695e-18
1.61165e-18
1.75631e-18
2.14437e-18
1.9815e-18
1.9054e-18
2.22005e-18
1.90358e-18
1.68331e-18
1.53848e-18
2.00996e-18
1.99946e-18
1.89698e-18
1.47184e-18
1.88707e-18
1.76998e-18
1.79023e-18
1.87688e-18
2.04153e-18
2.27732e-18
2.26364e-18
1.95183e-18
1.64724e-18
1.43076e-18
1.4307e-18
1.64474e-18
1.8931e-18
2.27644e-18
1.83943e-18
1.59291e-18
1.74546e-18
1.79823e-18
1.87253e-18
2.21466e-18
1.7063e-18
2.0164e-18
1.44336e-18
1.52422e-18
1.47761e-18
1.80572e-18
1.72055e-18
1.65735e-18
1.69408e-18
1.58218e-18
1.68151e-18
1.56829e-18
1.32067e-18
1.93912e-18
1.88862e-18
1.44026e-18
1.62438e-18
1.69683e-18
1.59442e-18
1.78163e-18
1.77378e-18
2.1882e-18
1.81431e-18
2.19767e-18
1.63318e-18
1.35979e-18
2.07323e-18
1.66994e-18
1.93968e-18
2.01523e-18
1.89468e-18
1.90477e-18
1.89767e-18
2.0589e-18
1.67359e-18
1.55065e-18
1.45325e-18
2.47497e-18
2.75955e-18
2.36205e-18
2.56754e-18
2.53523e-18
2.59904e-18
3.04498e-18
2.70706e-18
2.93757e-18
2.96192e-18
2.57953e-18
2.70648e-18
3.00827e-18
2.648e-18
2.49118e-18
2.78969e-18
3.27401e-18
2.68723e-18
2.60923e-18
2.49894e-18
2.73218e-18
3.03557e-18
3.01267e-18
2.69926e-18
2.88137e-18
3.00479e-18
2.92684e-18
2.70501e-18
2.80801e-18
2.81572e-18
2.49279e-18
2.88068e-18
2.73174e-18
2.3431e-18
2.66419e-18
2.6644e-18
2.81112e-18
2.67966e-18
2.69814e-18
2.99882e-18
2.70536e-18
2.72403e-18
2.81108e-18
2.66327e-18
2.80595e-18
2.78997e-18
2.92787e-18
3.10491e-18
3.06505e-18
2.89124e-18
2.63338e-18
2.81027e-18
3.02007e-18
2.88397e-18
2.6727e-18
2.80048e-18
3.00659e-18
3.10971e-18
3.00853e-18
2.93087e-18
2.73841e-18
2.99403e-18
2.91582e-18
2.68958e-18
2.63408e-18
2.66748e-18
2.54045e-18
2.59832e-18
2.57799e-18
2.95257e-18
2.81809e-18
3.05937e-18
2.72633e-18
3.19065e-18
2.70449e-18
2.76088e-18
2.76576e-18
3.01764e-18
2.614e-18
2.88759e-18
2.9362e-18
2.97731e-18
2.83608e-18
2.87259e-18
3.06929e-18
2.77294e-18
2.66395e-18
2.95334e-18
2.78978e-18
2.38166e-18
2.73327e-18
2.40094e-18
2.67098e-18
2.75316e-18
2.77688e-18
3.01301e-18
2.90384e-18
2.70252e-18
2.69312e-18
2.87016e-18
2.67799e-18
2.48584e-18
2.73814e-18
2.96433e-18
3.21505e-18
2.55638e-18
2.87404e-18
2.92631e-18
2.43242e-18
3.04759e-18
2.88433e-18
2.37586e-18
2.76978e-18
2.67971e-18
2.87455e-18
2.97065e-18
2.64429e-18
2.71776e-18
2.76568e-18
2.9662e-18
2.89858e-18
3.16722e-18
2.70673e-18
2.67523e-18
2.62213e-18
2.81548e-18
2.98729e-18
2.66934e-18
2.38351e-18
2.69688e-18
2.72843e-18
2.27669e-18
2.90325e-18
3.23493e-18
3.08291e-18
2.643e-18
2.64249e-18
2.87204e-18
3.01902e-18
2.85831e-18
2.74854e-18
2.49134e-18
2.76022e-18
2.92805e-18
2.80187e-18
2.9508e-18
2.75062e-18
2.55773e-18
2.39484e-18
2.65264e-18
2.7075e-18
2.599e-18
2.77451e-18
3.29718e-18
2.86297e-18
2.95979e-18
2.96451e-18
2.81148e-18
2.81841e-18
2.9956e-18
2.68655e-18
2.99251e-18
2.69787e-18
3.06295e-18
2.78577e-18
2.87261e-18
3.31998e-18
2.66827e-18
2.4085e-18
2.58516e-18
2.62419e-18
2.81522e-18
2.86619e-18
3.0414e-18
2.76398e-18
2.99709e-18
2.89414e-18
2.49068e-18
2.76894e-18
2.48082e-18
2.8239e-18
2.68223e-18
2.99651e-18
2.67379e-18
3.24986e-18
2.76176e-18
2.73941e-18
2.73614e-18
2.81946e-18
3.53259e-18
2.92359e-18
2.51149e-18
2.8056e-18
2.83978e-18
2.44986e-18
2.98345e-18
3.02226e-18
2.84719e-18
2.76315e-18
3.16737e-18
2.67948e-18
2.73127e-18
2.89384e-18
3.47535e-18
3.5975e-18
3.14908e-18
2.77081e-18
2.76114e-18
3.02971e-18
3.27488e-18
2.71363e-18
2.76563e-18
2.68705e-18
3.05985e-18
2.87566e-18
2.72786e-18
3.02312e-18
2.8348e-18
2.87056e-18
2.74141e-18
3.04851e-18
2.73524e-18
2.44126e-18
2.50189e-18
2.50871e-18
2.85141e-18
2.44328e-18
3.01116e-18
3.21713e-18
2.76531e-18
2.73756e-18
2.54814e-18
3.1752e-18
3.0262e-18
2.7741e-18
2.6077e-18
2.6662e-18
3.02144e-18
3.09767e-18
2.72197e-18
2.95889e-18
3.06142e-18
2.53532e-18
2.69568e-18
2.85643e-18
2.94873e-18
2.61786e-18
2.61019e-18
2.94186e-18
3.16463e-18
3.02355e-18
3.18259e-18
2.56163e-18
2.53504e-18
2.80515e-18
2.7648e-18
5.5462e-18
4.834e-18
4.81151e-18
4.70546e-18
4.86761e-18
4.92538e-18
4.87039e-18
5.00338e-18
5.35047e-18
4.96732e-18
4.63392e-18
5.41187e-18
5.59991e-18
5.34543e-18
4.83304e-18
4.83531e-18
5.62949e-18
5.00911e-18
5.03979e-18
4.87988e-18
5.25251e-18
4.74761e-18
4.97175e-18
5.3193e-18
5.8148e-18
5.04723e-18
4.60213e-18
4.864e-18
5.01845e-18
5.08081e-18
4.80091e-18
4.69696e-18
4.77693e-18
5.14387e-18
5.9181e-18
6.11059e-18
5.55973e-18
5.3114e-18
5.09497e-18
4.85193e-18
5.12148e-18
5.4258e-18
5.5013e-18
5.42601e-18
5.32837e-18
5.19814e-18
5.48787e-18
5.63611e-18
5.22134e-18
5.21658e-18
4.06412e-18
4.97248e-18
5.03769e-18
4.69665e-18
5.43412e-18
4.92372e-18
4.70004e-18
5.46226e-18
5.82402e-18
5.76022e-18
5.2313e-18
5.8818e-18
5.57438e-18
5.62075e-18
5.49263e-18
5.35571e-18
5.65906e-18
5.02497e-18
5.08226e-18
5.86862e-18
5.15501e-18
5.04786e-18
5.90862e-18
5.85308e-18
4.57212e-18
5.06508e-18
4.74202e-18
5.73402e-18
4.78389e-18
5.00691e-18
5.02661e-18
4.73845e-18
5.15737e-18
5.57141e-18
5.34081e-18
5.54561e-18
5.48565e-18
5.30339e-18
5.59677e-18
5.79802e-18
4.99925e-18
4.97659e-18
4.53445e-18
5.58378e-18
5.08732e-18
4.65227e-18
5.69825e-18
5.23938e-18
5.22934e-18
4.64763e-18
5.13894e-18
5.43518e-18
5.02192e-18
5.20019e-18
4.83872e-18
4.4702e-18
5.47757e-18
5.30009e-18
5.04643e-18
4.95734e-18
5.6463e-18
5.39374e-18
4.91519e-18
5.68535e-18
6.02839e-18
5.99804e-18
5.54036e-18
6.06265e-18
6.0977e-18
5.4572e-18
5.05473e-18
5.45731e-18
5.55533e-18
5.18589e-18
4.81415e-18
4.89285e-18
5.51954e-18
5.54458e-18
5.25281e-18
5.63209e-18
5.74763e-18
5.08691e-18
5.03745e-18
4.89264e-18
4.94309e-18
5.25627e-18
4.84941e-18
4.75329e-18
5.57477e-18
5.66343e-18
4.82947e-18
4.67573e-18
5.74993e-18
5.31863e-18
5.08821e-18
5.52471e-18
4.83693e-18
5.20507e-18
5.3461e-18
4.72179e-18
4.5297e-18
4.74837e-18
5.34885e-18
5.47721e-18
4.5703e-18
4.30135e-18
5.93781e-18
5.9649e-18
5.53454e-18
5.6633e-18
4.97948e-18
5.72731e-18
5.14803e-18
5.52598e-18
4.77759e-18
5.09046e-18
6.16002e-18
5.48668e-18
5.3283e-18
5.57618e-18
5.25843e-18
5.26334e-18
5.64224e-18
5.75639e-18
4.86261e-18
4.75471e-18
5.78711e-18
5.28951e-18
4.50715e-18
5.55005e-18
4.79551e-18
4.89426e-18
5.47653e-18
5.05057e-18
6.03655e-18
5.43747e-18
5.07198e-18
5.00143e-18
5.34033e-18
6.33439e-18
4.77581e-18
5.08881e-18
5.25428e-18
5.06548e-18
5.85024e-18
5.48716e-18
5.34939e-18
4.87416e-18
5.1266e-18
5.75759e-18
5.99113e-18
5.20583e-18
5.67325e-18
5.90731e-18
4.92859e-18
5.07296e-18
4.98475e-18
4.52973e-18
5.16794e-18
5.16288e-18
4.90969e-18
4.37659e-18
5.06042e-18
4.88877e-18
5.30161e-18
4.81631e-18
5.01505e-18
4.73588e-18
4.83936e-18
4.98185e-18
5.3352e-18
5.4588e-18
5.97608e-18
5.2152e-18
4.86989e-18
4.95371e-18
4.4939e-18
5.10409e-18
4.92297e-18
4.82132e-18
4.5208e-18
4.90565e-18
5.02535e-18
4.95391e-18
4.74747e-18
4.98636e-18
5.30967e-18
5.62785e-18
5.78597e-18
5.37819e-18
5.47018e-18
5.327e-18
5.24796e-18
5.08865e-18
5.38628e-18
5.18557e-18
4.84332e-18
4.92134e-18
5.5747e-18
5.8878e-18
5.39254e-18
5.90908e-18
5.08043e-18
4.84145e-18
5.66413e-18
5.8101e-18
9.76267e-18
8.651e-18
9.72475e-18
9.93895e-18
1.01736e-17
9.31906e-18
8.72316e-18
9.91741e-18
1.06498e-17
8.44424e-18
8.95117e-18
8.46414e-18
9.30052e-18
1.09045e-17
9.52544e-18
1.03835e-17
9.51258e-18
9.56589e-18
1.0684e-17
1.03515e-17
1.05665e-17
1.03698e-17
8.23684e-18
9.09272e-18
1.00987e-17
1.00899e-17
1.04368e-17
1.06814e-17
1.25833e-17
1.07408e-17
9.20554e-18
9.01482e-18
9.52312e-18
1.02315e-17
9.67369e-18
9.70771e-18
1.07909e-17
1.06326e-17
9.49136e-18
8.47565e-18
1.00399e-17
8.92653e-18
8.4767e-18
1.12392e-17
9.96014e-18
9.58307e-18
1.06805e-17
1.06517e-17
1.06909e-17
1.12738e-17
9.69061e-18
9.66963e-18
8.51192e-18
1.09102e-17
9.08712e-18
8.96892e-18
1.07938e-17
9.97557e-18
9.51707e-18
9.26159e-18
8.8409e-18
8.34019e-18
8.98443e-18
1.0059e-17
1.01058e-17
1.04337e-17
1.09626e-17
1.0105e-17
9.16381e-18
1.00533e-17
1.01619e-17
1.07574e-17
1.01192e-17
9.54986e-18
9.05844e-18
9.29163e-18
9.1428e-18
9.06792e-18
9.6356e-18
9.37843e-18
9.05803e-18
8.72296e-18
9.68422e-18
1.06752e-17
8.94814e-18
1.05524e-17
9.81162e-18
1.08803e-17
1.02881e-17
1.10402e-17
1.05529e-17
9.77976e-18
9.47544e-18
1.09098e-17
8.91651e-18
8.762e-18
1.0583e-17
9.80875e-18
8.83732e-18
9.61019e-18
9.42481e-18
1.03236e-17
9.85095e-18
9.43296e-18
9.48144e-18
8.64417e-18
8.95388e-18
9.18578e-18
1.03373e-17
9.66136e-18
1.02634e-17
9.29302e-18
9.46698e-18
1.00852e-17
9.29995e-18
1.05708e-17
1.02307e-17
9.59459e-18
9.14427e-18
9.28163e-18
1.11843e-17
1.08324e-17
1.03489e-17
1.04029e-17
9.0734e-18
1.00021e-17
9.94067e-18
1.01756e-17
9.43963e-18
9.60993e-18
9.59007e-18
9.51237e-18
9.06333e-18
8.77237e-18
9.33107e-18
9.496e-18
9.92149e-18
1.05801e-17
1.00676e-17
9.23988e-18
8.76413e-18
9.15828e-18
1.04128e-17
1.02795e-17
9.83409e-18
1.07666e-17
1.05055e-17
8.84858e-18
9.85822e-18
9.44068e-18
9.10894e-18
9.40517e-18
8.5758e-18
8.30779e-18
9.01654e-18
8.23176e-18
1.03827e-17
9.33927e-18
9.96252e-18
9.08197e-18
8.69488e-18
1.04963e-17
1.00382e-17
9.40144e-18
1.00029e-17
9.47418e-18
9.52253e-18
1.00293e-17
1.07972e-17
9.90581e-18
1.00168e-17
1.13521e-17
1.2009e-17
9.48274e-18
7.83773e-18
9.91143e-18
1.08061e-17
8.17014e-18
1.06953e-17
1.03058e-17
9.7822e-18
9.2597e-18
9.35198e-18
8.60348e-18
8.99303e-18
8.87673e-18
8.57767e-18
1.01918e-17
9.31694e-18
1.00856e-17
8.96296e-18
1.02658e-17
9.82621e-18
9.22389e-18
9.49982e-18
9.22898e-18
8.47437e-18
9.41946e-18
9.52039e-18
8.03543e-18
1.08545e-17
1.02728e-17
9.39918e-18
1.12952e-17
8.71971e-18
8.96709e-18
1.11096e-17
9.78642e-18
9.43678e-18
9.96273e-18
8.9296e-18
9.36834e-18
1.02916e-17
9.09625e-18
9.3841e-18
9.0326e-18
9.18843e-18
1.04207e-17
9.24072e-18
7.90755e-18
9.01345e-18
1.04381e-17
1.07321e-17
9.0493e-18
8.53355e-18
9.86535e-18
8.63362e-18
9.40493e-18
9.62643e-18
8.99653e-18
8.66525e-18
9.69266e-18
1.04688e-17
1.03224e-17
8.8536e-18
8.249e-18
9.73207e-18
1.03386e-17
1.01965e-17
1.01832e-17
9.69052e-18
9.89849e-18
8.25919e-18
9.84863e-18
8.91455e-18
9.21774e-18
9.95621e-18
9.48843e-18
1.07743e-17
9.72465e-18
8.47034e-18
9.70628e-18
1.07359e-17
1.02309e-17
9.52653e-18
1.02689e-17
1.82218e-17
1.78461e-17
1.8918e-17
1.95033e-17
1.94942e-17
1.72051e-17
1.77444e-17
1.82292e-17
2.00434e-17
1.81751e-17
1.73616e-17
1.60804e-17
1.75291e-17
1.68088e-17
1.73268e-17
2.02225e-17
2.03533e-17
1.7829e-17
1.72737e-17
1.78455e-17
1.75712e-17
1.83573e-17
1.85836e-17
1.52358e-17
1.63439e-17
1.86848e-17
1.97913e-17
1.62382e-17
1.67828e-17
1.81353e-17
2.00781e-17
1.91945e-17
1.66326e-17
1.69535e-17
1.61543e-17
1.93019e-17
1.96446e-17
1.88669e-17
1.80249e-17
1.70281e-17
1.70403e-17
1.86428e-17
1.79807e-17
1.9582e-17
1.65014e-17
1.76929e-17
1.69436e-17
1.92969e-17
1.81724e-17
1.74872e-17
1.79127e-17
1.54839e-17
1.73516e-17
1.83763e-17
1.7129e-17
1.71251e-17
1.69002e-17
1.7608e-17
1.68525e-17
1.67844e-17
1.8206e-17
1.86462e-17
1.87913e-17
1.78203e-17
1.72962e-17
1.87689e-17
1.85487e-17
1.61503e-17
1.84248e-17
1.82502e-17
1.85164e-17
1.86438e-17
1.78261e-17
1.52793e-17
1.47947e-17
1.82771e-17
1.92719e-17
1.88045e-17
1.93538e-17
2.10733e-17
1.84014e-17
1.88744e-17
1.88947e-17
1.86542e-17
1.89909e-17
1.80174e-17
1.62704e-17
1.8059e-17
1.7401e-17
1.71371e-17
1.93136e-17
1.75503e-17
1.87996e-17
1.71487e-17
2.04615e-17
1.88132e-17
1.96969e-17
1.82786e-17
1.90237e-17
1.91412e-17
1.9798e-17
1.91744e-17
1.88579e-17
1.75096e-17
1.81546e-17
1.78708e-17
1.71791e-17
1.69726e-17
1.74447e-17
1.70038e-17
1.85635e-17
1.96898e-17
1.83249e-17
1.99442e-17
1.851e-17
1.71988e-17
1.7851e-17
2.03464e-17
1.77473e-17
1.85336e-17
2.16197e-17
1.84997e-17
1.59686e-17
1.85763e-17
1.84349e-17
1.75891e-17
1.80976e-17
1.89235e-17
1.88796e-17
1.97051e-17
1.60987e-17
1.67362e-17
1.79172e-17
1.67611e-17
1.88747e-17
1.80259e-17
1.88579e-17
1.74503e-17
1.90188e-17
1.86242e-17
1.76951e-17
1.69522e-17
1.86591e-17
1.93766e-17
1.87382e-17
2.01372e-17
1.94395e-17
1.63136e-17
1.70708e-17
1.66152e-17
1.94053e-17
1.8409e-17
1.8244e-17
1.25483e-17
1.58356e-17
1.98567e-17
1.81896e-17
1.71583e-17
1.75067e-17
1.90401e-17
2.10289e-17
1.75951e-17
1.64713e-17
1.75618e-17
1.83439e-17
1.84943e-17
1.69429e-17
1.67163e-17
1.67434e-17
1.90722e-17
1.81126e-17
1.86205e-17
2.09979e-17
2.14007e-17
1.70852e-17
1.73894e-17
1.92302e-17
1.73662e-17
1.67593e-17
1.79651e-17
1.89101e-17
2.13868e-17
1.76262e-17
1.89949e-17
1.6809e-17
1.72522e-17
2.0316e-17
2.12075e-17
1.91968e-17
1.83027e-17
1.63651e-17
1.97068e-17
1.7502e-17
1.55701e-17
1.80011e-17
1.73915e-17
1.90413e-17
1.79239e-17
1.80199e-17
1.637e-17
1.88305e-17
1.8195e-17
1.8305e-17
2.1282e-17
1.81485e-17
1.83698e-17
2.02074e-17
2.04778e-17
1.844e-17
1.54352e-17
1.86912e-17
1.92495e-17
1.76252e-17
1.83848e-17
2.05684e-17
1.79663e-17
1.51839e-17
1.64772e-17
1.85339e-17
1.63833e-17
1.53888e-17
1.62769e-17
1.8297e-17
1.77007e-17
1.94489e-17
1.79557e-17
1.89771e-17
1.95513e-17
1.91221e-17
1.85606e-17
1.85333e-17
1.77279e-17
1.78299e-17
1.71741e-17
1.66908e-17
1.59851e-17
1.79608e-17
1.52556e-17
1.73667e-17
2.0243e-17
1.55916e-17
1.78027e-17
1.87316e-17
1.80262e-17
1.82683e-17
1.90943e-17
1.88775e-17
1.77872e-17
1.96677e-17
1.67065e-17
1.74602e-17
1.68169e-17
1.79107e-17
1.56854e-17
1.73119e-17
1.77959e-17
3.27066e-17
3.52173e-17
3.75421e-17
3.86196e-17
3.80351e-17
3.56928e-17
3.49882e-17
3.28589e-17
3.50394e-17
2.95122e-17
2.8793e-17
3.33572e-17
3.36462e-17
2.99548e-17
3.16902e-17
3.69972e-17
3.23659e-17
3.20667e-17
3.28334e-17
3.16761e-17
3.19698e-17
3.01977e-17
3.65693e-17
3.33062e-17
3.4525e-17
3.62221e-17
3.58937e-17
3.31901e-17
3.09826e-17
3.77975e-17
3.64279e-17
3.46795e-17
2.98755e-17
2.95219e-17
3.15038e-17
3.51544e-17
3.71837e-17
3.92538e-17
3.58007e-17
3.39025e-17
3.19752e-17
4.20239e-17
4.098e-17
3.23384e-17
3.46198e-17
3.36595e-17
3.17971e-17
3.36224e-17
3.94099e-17
3.46029e-17
3.68417e-17
3.78241e-17
3.31209e-17
3.42663e-17
3.16802e-17
3.39835e-17
3.73171e-17
3.46654e-17
3.21044e-17
3.30389e-17
3.35691e-17
3.48475e-17
3.66226e-17
3.36943e-17
3.256e-17
3.47404e-17
3.24826e-17
3.34987e-17
3.61466e-17
3.49457e-17
3.29872e-17
3.69641e-17
3.60542e-17
3.47518e-17
3.34614e-17
3.69654e-17
3.44486e-17
3.62683e-17
3.52295e-17
3.32728e-17
2.831e-17
3.17145e-17
3.65533e-17
3.36834e-17
3.6189e-17
3.39398e-17
3.37163e-17
3.15643e-17
3.07678e-17
2.8304e-17
3.3598e-17
3.16188e-17
3.2355e-17
2.87508e-17
3.61414e-17
3.80793e-17
3.05198e-17
2.99742e-17
3.04979e-17
3.33907e-17
3.58171e-17
3.06446e-17
3.22672e-17
3.24382e-17
3.3768e-17
4.0099e-17
3.38031e-17
3.6779e-17
3.40215e-17
3.3402e-17
3.68035e-17
3.41659e-17
3.67139e-17
3.61464e-17
3.52792e-17
3.37001e-17
3.07256e-17
3.6729e-17
3.91071e-17
4.39309e-17
3.57141e-17
3.19372e-17
3.07943e-17
2.99381e-17
3.05907e-17
3.3824e-17
3.44974e-17
3.44718e-17
3.34254e-17
3.5278e-17
2.8823e-17
3.07384e-17
3.26203e-17
3.44681e-17
3.28831e-17
3.46668e-17
3.25708e-17
2.96889e-17
3.39224e-17
3.4493e-17
3.3726e-17
3.10782e-17
4.12386e-17
3.30303e-17
3.59394e-17
3.0509e-17
2.99458e-17
3.17955e-17
3.35155e-17
3.40153e-17
3.71372e-17
4.03533e-17
3.8907e-17
3.15224e-17
3.23139e-17
3.77171e-17
3.52198e-17
3.39373e-17
3.31634e-17
2.84127e-17
3.50722e-17
4.0018e-17
3.54169e-17
3.42937e-17
2.91264e-17
3.16585e-17
3.44588e-17
3.14186e-17
3.63047e-17
3.49093e-17
3.12123e-17
3.50259e-17
3.67407e-17
3.64491e-17
3.14042e-17
3.41732e-17
3.56828e-17
3.149e-17
3.32708e-17
3.36715e-17
3.42586e-17
3.72546e-17
3.11632e-17
3.54813e-17
4.09628e-17
3.29157e-17
3.11428e-17
3.33343e-17
4.15049e-17
3.5472e-17
3.27138e-17
3.42143e-17
3.27328e-17
3.38484e-17
3.46739e-17
3.48944e-17
3.34673e-17
2.95026e-17
3.60696e-17
3.43551e-17
3.66918e-17
3.53993e-17
3.58382e-17
3.72946e-17
3.32697e-17
3.45487e-17
3.43446e-17
3.77343e-17
3.16918e-17
3.1145e-17
3.59177e-17
3.34733e-17
3.2936e-17
3.02435e-17
3.61088e-17
2.97827e-17
2.78952e-17
3.33538e-17
3.49321e-17
3.56905e-17
3.18803e-17
3.33782e-17
3.04019e-17
3.13579e-17
3.47756e-17
3.40656e-17
3.52121e-17
3.52471e-17
3.62264e-17
3.74196e-17
3.46245e-17
3.46752e-17
3.68191e-17
3.19585e-17
3.50741e-17
3.43324e-17
3.1565e-17
2.87705e-17
3.27873e-17
2.91661e-17
3.14424e-17
3.39507e-17
3.53925e-17
3.57168e-17
3.48435e-17
3.55801e-17
3.39731e-17
3.2871e-17
3.33482e-17
3.01643e-17
3.16951e-17
3.61048e-17
3.49863e-17
3.06864e-17
3.28241e-17
3.76683e-17
6.33669e-17
6.32327e-17
5.40832e-17
5.88171e-17
6.85402e-17
6.31751e-17
6.31315e-17
5.71297e-17
5.3332e-17
5.68626e-17
6.85037e-17
7.23627e-17
6.20716e-17
5.89037e-17
6.2646e-17
7.35867e-17
6.80887e-17
5.83916e-17
6.09287e-17
5.77543e-17
6.37973e-17
6.27754e-17
6.06311e-17
6.5159e-17
6.99621e-17
6.80289e-17
6.45847e-17
6.1417e-17
6.05313e-17
5.20109e-17
5.68463e-17
5.97319e-17
6.27401e-17
6.54828e-17
7.2791e-17
7.01717e-17
5.43278e-17
6.44718e-17
6.01717e-17
6.24756e-17
6.84384e-17
7.014e-17
6.56264e-17
5.98341e-17
6.19346e-17
6.3442e-17
6.48842e-17
6.21062e-17
6.60676e-17
7.15263e-17
6.0443e-17
6.10776e-17
6.38799e-17
7.09905e-17
6.67885e-17
6.92833e-17
7.67877e-17
6.48535e-17
6.67194e-17
6.38539e-17
5.66235e-17
5.6395e-17
6.78474e-17
6.18281e-17
5.83653e-17
6.46265e-17
6.90286e-17
6.71412e-17
6.23701e-17
6.26966e-17
6.28266e-17
6.65919e-17
6.35885e-17
5.70327e-17
5.73167e-17
6.81421e-17
6.83902e-17
5.27004e-17
5.05793e-17
5.99993e-17
5.04037e-17
5.85607e-17
7.08127e-17
6.74274e-17
5.82988e-17
5.94225e-17
6.19407e-17
6.02506e-17
5.68196e-17
5.81971e-17
6.64586e-17
5.93888e-17
6.3236e-17
6.76388e-17
6.83562e-17
6.55774e-17
6.25715e-17
6.34865e-17
5.91112e-17
5.77884e-17
6.26595e-17
5.94325e-17
5.90591e-17
7.38939e-17
6.0548e-17
6.27644e-17
6.00753e-17
6.84705e-17
5.87546e-17
5.45607e-17
6.26559e-17
6.7676e-17
5.81461e-17
6.37477e-17
6.06065e-17
6.00554e-17
6.41879e-17
6.62296e-17
5.37145e-17
6.16997e-17
6.01621e-17
5.81875e-17
6.49974e-17
6.32354e-17
7.22547e-17
5.64479e-17
5.94604e-17
6.25135e-17
6.16623e-17
7.12291e-17
6.61637e-17
7.4194e-17
5.40448e-17
6.58379e-17
6.22213e-17
6.35363e-17
6.1867e-17
5.89487e-17
5.4795e-17
6.17851e-17
6.33718e-17
6.5138e-17
6.38999e-17
5.69433e-17
6.51091e-17
6.44427e-17
6.09492e-17
5.90035e-17
5.97284e-17
6.78848e-17
6.69192e-17
5.93902e-17
5.8847e-17
6.2341e-17
6.65559e-17
6.50406e-17
5.93519e-17
5.97653e-17
6.6508e-17
5.31107e-17
6.1726e-17
6.49457e-17
6.7769e-17
6.3482e-17
6.21011e-17
6.27604e-17
6.13673e-17
6.25253e-17
6.99351e-17
6.40061e-17
5.27228e-17
6.42045e-17
6.10053e-17
6.61947e-17
6.63495e-17
6.4421e-17
6.29414e-17
7.18372e-17
5.98119e-17
5.94627e-17
5.98621e-17
6.50276e-17
6.32748e-17
6.16381e-17
6.21817e-17
6.30714e-17
6.54377e-17
6.83719e-17
6.74616e-17
6.0146e-17
5.77781e-17
5.68617e-17
7.2645e-17
6.63477e-17
6.35645e-17
6.52822e-17
5.85935e-17
6.37465e-17
6.13105e-17
6.7519e-17
6.74944e-17
6.722e-17
6.05104e-17
6.48617e-17
6.22291e-17
5.6647e-17
5.87474e-17
6.77445e-17
6.31711e-17
6.50297e-17
6.65091e-17
6.36204e-17
6.09951e-17
5.81676e-17
6.03924e-17
5.991e-17
6.5611e-17
6.87812e-17
6.64882e-17
6.73258e-17
6.24448e-17
6.4539e-17
5.95126e-17
5.78183e-17
5.96328e-17
6.35242e-17
6.08669e-17
6.69952e-17
5.83522e-17
5.62893e-17
6.14951e-17
6.2323e-17
6.26736e-17
6.54886e-17
6.84375e-17
7.29876e-17
5.79804e-17
5.7403e-17
6.42775e-17
5.74228e-17
5.30274e-17
6.51041e-17
6.34799e-17
6.36606e-17
7.04164e-17
6.3188e-17
5.93192e-17
6.28988e-17
5.65636e-17
6.75351e-17
6.92833e-17
6.52201e-17
6.65192e-17
6.06959e-17
6.35073e-17
6.29889e-17
1.21573e-16
1.12898e-16
1.15832e-16
1.11851e-16
1.19109e-16
1.20144e-16
1.20848e-16
1.07021e-16
1.1425e-16
1.20456e-16
1.28677e-16
1.14509e-16
1.07192e-16
1.04591e-16
1.20367e-16
9.18881e-17
1.18054e-16
1.08557e-16
1.00688e-16
1.0774e-16
1.18971e-16
1.10132e-16
1.1784e-16
1.16094e-16
1.27411e-16
1.14005e-16
1.28621e-16
1.32973e-16
1.03957e-16
1.00819e-16
1.16865e-16
1.33867e-16
1.40216e-16
1.18797e-16
1.18528e-16
1.16122e-16
1.07642e-16
1.17518e-16
1.19266e-16
1.11947e-16
1.0806e-16
1.25238e-16
1.26055e-16
1.2505e-16
1.26747e-16
1.24762e-16
1.12096e-16
1.19647e-16
9.92435e-17
1.24236e-16
1.13968e-16
1.32316e-16
1.20119e-16
1.22703e-16
1.22501e-16
1.32882e-16
1.26947e-16
1.27626e-16
1.31394e-16
1.17125e-16
1.26955e-16
1.23327e-16
1.29474e-16
1.12911e-16
1.07698e-16
1.06792e-16
1.27598e-16
1.22764e-16
1.16364e-16
1.09104e-16
1.15889e-16
1.10997e-16
1.1967e-16
1.25635e-16
1.1333e-16
1.26767e-16
1.47639e-16
1.31667e-16
1.13753e-16
1.2158e-16
1.11213e-16
1.1042e-16
1.37276e-16
1.31411e-16
1.17176e-16
1.09706e-16
1.18864e-16
1.08139e-16
1.30302e-16
1.17992e-16
1.12065e-16
1.31361e-16
1.27559e-16
1.16262e-16
1.24537e-16
1.09929e-16
1.16025e-16
1.23856e-16
1.16628e-16
1.14657e-16
1.28656e-16
1.33071e-16
1.27596e-16
1.24229e-16
1.18928e-16
1.23425e-16
1.10282e-16
1.18824e-16
1.12993e-16
1.21556e-16
1.17076e-16
1.28147e-16
1.24579e-16
1.08316e-16
1.11474e-16
1.27056e-16
1.20995e-16
1.06207e-16
9.0342e-17
8.99349e-17
9.73567e-17
1.17682e-16
1.13619e-16
1.40987e-16
1.39641e-16
1.05967e-16
1.10295e-16
1.1362e-16
1.09754e-16
1.28331e-16
1.13958e-16
1.16289e-16
1.22499e-16
1.29344e-16
1.16908e-16
9.77257e-17
1.0971e-16
1.18359e-16
1.11597e-16
1.09023e-16
1.14748e-16
1.18051e-16
1.08785e-16
1.0847e-16
1.27969e-16
1.24867e-16
1.17206e-16
1.31377e-16
1.24129e-16
1.08418e-16
1.11734e-16
1.10069e-16
1.2408e-16
1.13192e-16
1.08802e-16
1.11109e-16
1.11164e-16
1.18112e-16
1.28707e-16
1.24102e-16
1.1099e-16
1.30608e-16
1.18784e-16
1.18937e-16
1.27105e-16
1.11576e-16
1.13445e-16
1.26646e-16
1.20467e-16
1.22286e-16
1.23901e-16
1.29588e-16
1.10276e-16
1.10889e-16
1.078e-16
1.2381e-16
1.28477e-16
1.24395e-16
1.34462e-16
1.23835e-16
1.3644e-16
1.26389e-16
1.07189e-16
1.12139e-16
1.29503e-16
1.1569e-16
1.26773e-16
1.16161e-16
1.18064e-16
1.25974e-16
1.14137e-16
1.11394e-16
1.22122e-16
1.14128e-16
1.23475e-16
1.10803e-16
1.2289e-16
1.23099e-16
9.65403e-17
1.0726e-16
1.16742e-16
1.22025e-16
1.13421e-16
1.18456e-16
1.12485e-16
1.19361e-16
1.13274e-16
1.13074e-16
1.15586e-16
1.19069e-16
1.1689e-16
1.05345e-16
1.2038e-16
1.12304e-16
1.24506e-16
1.30725e-16
1.22227e-16
1.15119e-16
1.23142e-16
1.20346e-16
1.32898e-16
1.37444e-16
1.19231e-16
1.26966e-16
1.33944e-16
1.27855e-16
1.14522e-16
1.07002e-16
1.17772e-16
1.29833e-16
1.26429e-16
1.17835e-16
1.19294e-16
1.26866e-16
1.23431e-16
1.12873e-16
1.04116e-16
1.20211e-16
1.27282e-16
1.23538e-16
9.26133e-17
1.2202e-16
1.22574e-16
1.35693e-16
1.19063e-16
1.33573e-16
1.19643e-16
1.35899e-16
1.15381e-16
1.3047e-16
1.33014e-16
1.15378e-16
1.11687e-16
1.0782e-16
1.19142e-16
1.17043e-16
2.40325e-16
2.28235e-16
2.22572e-16
2.10119e-16
2.1892e-16
2.52529e-16
2.39391e-16
2.06265e-16
2.34903e-16
2.20832e-16
2.25243e-16
2.20806e-16
2.0389e-16
2.02005e-16
2.27571e-16
1.96684e-16
2.49939e-16
2.05045e-16
2.14021e-16
2.07557e-16
2.40408e-16
1.87198e-16
2.22406e-16
2.3415e-16
2.28252e-16
2.49522e-16
2.12756e-16
2.03596e-16
2.13431e-16
2.00262e-16
2.54084e-16
2.20611e-16
2.35345e-16
2.18281e-16
2.16546e-16
2.31242e-16
2.19658e-16
2.26472e-16
2.42085e-16
2.32306e-16
2.18391e-16
2.17094e-16
2.20472e-16
2.38028e-16
2.55327e-16
2.13602e-16
2.06813e-16
2.06642e-16
2.04535e-16
2.49126e-16
2.18667e-16
2.46679e-16
2.38938e-16
2.4469e-16
2.39313e-16
1.99832e-16
2.21442e-16
2.25538e-16
2.51308e-16
2.47734e-16
2.24535e-16
2.31656e-16
2.02713e-16
1.90284e-16
2.04673e-16
2.07838e-16
2.23568e-16
2.17545e-16
2.20744e-16
2.29024e-16
2.17384e-16
2.04719e-16
2.15972e-16
2.46429e-16
2.04663e-16
1.98989e-16
2.32556e-16
2.61669e-16
2.72466e-16
2.39443e-16
2.33902e-16
2.14998e-16
2.08029e-16
2.15599e-16
2.30975e-16
1.97882e-16
2.16568e-16
2.03645e-16
2.02038e-16
2.17317e-16
2.26409e-16
2.40069e-16
2.11002e-16
2.10413e-16
2.37171e-16
2.08684e-16
2.46996e-16
2.55227e-16
2.37215e-16
2.10985e-16
2.22251e-16
2.15337e-16
2.33624e-16
2.27558e-16
2.35508e-16
2.35122e-16
2.23595e-16
2.01777e-16
2.13467e-16
2.22925e-16
2.24746e-16
2.44552e-16
2.25585e-16
2.07653e-16
2.35894e-16
2.31335e-16
2.2918e-16
1.96391e-16
2.16093e-16
2.14266e-16
2.08431e-16
2.07272e-16
1.92171e-16
2.1814e-16
2.12578e-16
1.98759e-16
2.32599e-16
2.17517e-16
1.97082e-16
2.04386e-16
2.05825e-16
2.13143e-16
2.07749e-16
2.25503e-16
2.07868e-16
2.06009e-16
2.2331e-16
2.31293e-16
2.38252e-16
2.33757e-16
2.09215e-16
2.26841e-16
2.21566e-16
1.92145e-16
2.35679e-16
2.57438e-16
2.59605e-16
2.35495e-16
2.27593e-16
2.46686e-16
2.23201e-16
2.29227e-16
2.41648e-16
2.06634e-16
2.44362e-16
2.39506e-16
2.24553e-16
1.78261e-16
2.13618e-16
2.31047e-16
2.39498e-16
2.42217e-16
2.34901e-16
2.22423e-16
1.95743e-16
1.98225e-16
2.12758e-16
2.13728e-16
2.10338e-16
2.14102e-16
2.13262e-16
2.19555e-16
2.24325e-16
2.00068e-16
2.0899e-16
2.34105e-16
2.26459e-16
2.21966e-16
2.62211e-16
2.41543e-16
2.29032e-16
2.16721e-16
2.01875e-16
2.15245e-16
2.37808e-16
2.42181e-16
2.16898e-16
2.43253e-16
2.22654e-16
2.19179e-16
2.19524e-16
2.07534e-16
2.21645e-16
1.97785e-16
2.32068e-16
2.00527e-16
2.18523e-16
2.33346e-16
2.29981e-16
2.04436e-16
2.18352e-16
2.10843e-16
2.22902e-16
2.09247e-16
2.00214e-16
2.1295e-16
2.2861e-16
2.08192e-16
2.18295e-16
2.3529e-16
2.31864e-16
1.99209e-16
2.00089e-16
2.0413e-16
2.11227e-16
2.44373e-16
2.04095e-16
2.4119e-16
2.49101e-16
2.29655e-16
2.15223e-16
2.27375e-16
2.54732e-16
2.05854e-16
2.01874e-16
2.18897e-16
2.28409e-16
2.17336e-16
2.25791e-16
2.27524e-16
2.40198e-16
2.34209e-16
2.17626e-16
2.0154e-16
2.23069e-16
2.26933e-16
2.33748e-16
2.2393e-16
2.61545e-16
2.05208e-16
2.0904e-16
2.29919e-16
2.1327e-16
2.29039e-16
2.38023e-16
2.03469e-16
2.0354e-16
2.12418e-16
2.10972e-16
2.2912e-16
2.37612e-16
2.20712e-16
2.04125e-16
1.84767e-16
2.10004e-16
2.19675e-16
4.70009e-16
4.00711e-16
3.65481e-16
4.05565e-16
4.24116e-16
4.68382e-16
3.39465e-16
3.91883e-16
4.0309e-16
4.31798e-16
4.41319e-16
4.094e-16
3.28024e-16
4.53568e-16
4.55201e-16
4.05203e-16
5.2147e-16
4.11343e-16
3.99307e-16
3.93133e-16
4.1086e-16
3.70119e-16
4.6278e-16
4.10179e-16
4.50734e-16
4.41856e-16
3.89464e-16
4.17893e-16
4.05873e-16
4.15851e-16
4.46222e-16
4.19135e-16
3.89313e-16
4.0751e-16
4.22619e-16
4.35824e-16
4.02869e-16
4.33638e-16
4.32761e-16
3.7929e-16
4.30819e-16
3.58599e-16
3.95537e-16
3.82879e-16
4.86667e-16
4.20177e-16
4.38444e-16
3.8243e-16
4.02261e-16
4.45655e-16
4.4699e-16
4.76428e-16
4.24978e-16
3.83166e-16
3.94958e-16
4.57994e-16
3.73987e-16
3.92391e-16
3.92388e-16
4.19047e-16
4.15991e-16
4.06178e-16
4.19915e-16
4.19364e-16
3.97621e-16
3.39258e-16
4.10484e-16
4.62036e-16
4.17193e-16
4.12934e-16
4.04282e-16
4.13139e-16
4.08999e-16
4.43128e-16
3.88835e-16
3.91247e-16
4.15872e-16
4.2595e-16
4.9621e-16
4.42869e-16
3.68545e-16
3.8355e-16
4.49451e-16
4.26835e-16
3.65939e-16
3.93617e-16
4.65202e-16
4.06034e-16
3.59195e-16
4.18474e-16
3.99683e-16
4.08082e-16
4.04602e-16
3.90186e-16
4.04728e-16
3.89338e-16
4.15505e-16
4.03257e-16
3.97805e-16
3.85417e-16
4.44137e-16
4.20937e-16
4.21128e-16
4.02563e-16
4.67858e-16
4.72269e-16
3.91097e-16
4.15401e-16
3.75895e-16
4.19907e-16
4.12921e-16
4.02623e-16
4.1474e-16
3.66926e-16
4.45227e-16
3.79955e-16
3.94525e-16
3.94944e-16
3.96537e-16
4.38534e-16
4.49125e-16
3.81237e-16
3.89781e-16
3.98432e-16
3.69186e-16
3.08127e-16
4.40893e-16
4.09501e-16
4.40905e-16
3.80843e-16
3.91583e-16
3.90482e-16
4.35565e-16
4.60002e-16
4.22206e-16
4.10375e-16
4.33031e-16
4.2408e-16
3.89668e-16
3.43268e-16
3.9654e-16
4.09351e-16
4.24486e-16
3.7915e-16
4.04414e-16
3.9563e-16
3.77454e-16
4.35272e-16
4.03967e-16
3.94455e-16
4.21691e-16
4.34445e-16
4.64136e-16
3.96537e-16
5.25086e-16
3.8544e-16
3.96594e-16
3.55377e-16
4.22203e-16
4.1019e-16
4.67903e-16
4.38897e-16
4.10248e-16
4.01892e-16
4.31665e-16
4.23668e-16
4.03863e-16
3.80092e-16
4.02727e-16
4.10722e-16
4.59794e-16
4.96769e-16
4.2525e-16
3.61872e-16
4.04955e-16
4.42724e-16
3.78421e-16
3.45784e-16
3.72908e-16
3.88333e-16
4.13249e-16
4.15278e-16
3.89457e-16
4.66861e-16
4.73049e-16
3.53746e-16
3.41786e-16
3.65175e-16
4.11355e-16
4.36853e-16
4.14053e-16
3.81428e-16
4.39363e-16
3.97807e-16
4.22842e-16
4.40058e-16
4.00544e-16
3.98351e-16
3.71485e-16
3.67503e-16
3.94235e-16
3.89385e-16