# vtk DataFile Version 1.0
Ion Density - Current Sheet
ASCII
DATASET STRUCTURED_POINTS
DIMENSIONS 256 128 1
ORIGIN 0 0 0
SPACING 0.15625 0.15625 1
POINT_DATA 32768
SCALARS rhoi float
LOOKUP_TABLE default
1.63918e-18
1.44423e-18
1.36552e-18
1.69209e-18
1.73275e-18
1.53722e-18
1.88389e-18
1.92181e-18
1.74859e-18
1.74669e-18
1.84756e-18
2.09794e-18
1.82715e-18
1.65394e-18
1.47536e-18
1.72638e-18
2.09682e-18
1.95388e-18
1.77298e-18
1.40178e-18
2.0093e-18
2.36118e-18
2.08766e-18
1.91711e-18
1.96087e-18
1.9651e-18
2.20644e-18
1.77431e-18
2.03431e-18
2.2922e-18
1.60742e-18
2.23185e-18
1.82128e-18
2.17776e-18
1.64677e-18
1.7409e-18
1.52901e-18
1.69199e-18
2.1531e-18
2.05042e-18
1.59666e-18
1.88633e-18
1.70489e-18
1.58426e-18
1.7459e-18
2.00083e-18
1.8057e-18
2.05057e-18
2.13592e-18
1.65514e-18
1.70027e-18
1.64249e-18
1.81071e-18
1.69532e-18
1.80769e-18
1.91888e-18
1.98041e-18
1.84903e-18
2.05666e-18
1.86866e-18
1.52862e-18
1.47615e-18
2.08817e-18
1.83846e-18
1.68561e-18
1.87377e-18
1.64081e-18
1.58585e-18
1.46016e-18
1.55155e-18
1.9167e-18
2.11004e-18
1.59065e-18
1.55033e-18
1.85705e-18
1.25214e-18
1.62514e-18
2.01566e-18
1.67261e-18
1.78098e-18
2.06731e-18
2.13102e-18
1.89739e-18
1.59562e-18
2.13635e-18
2.19006e-18
1.87697e-18
2.11066e-18
1.83588e-18
1.40041e-18
1.54249e-18
1.4243e-18
2.00165e-18
1.61688e-18
1.25429e-18
1.80401e-18
1.82753e-18
1.89533e-18
1.73556e-18
1.66304e-18
1.47208e-18
1.54576e-18
1.3387e-18
1.28401e-18
1.92695e-18
1.31964e-18
1.8666e-18
1.93546e-18
1.61649e-18
1.91621e-18
1.95346e-18
2.12263e-18
1.87187e-18
1.84441e-18
1.84287e-18
1.83874e-18
1.43603e-18
1.83262e-18
1.7087e-18
1.51016e-18
1.52923e-18
1.75578e-18
1.86528e-18
1.8416e-18
1.98642e-18
1.8626e-18
1.68049e-18
1.45962e-18
1.38186e-18
1.69741e-18
1.69585e-18
1.40095e-18
1.70144e-18
2.12489e-18
2.25631e-18
2.03764e-18
1.95476e-18
1.93425e-18
2.10475e-18
1.78259e-18
1.91045e-18
1.369e-18
1.49353e-18
1.41825e-18
1.72984e-18
1.73309e-18
1.46319e-18
1.47183e-18
2.17382e-18
2.04653e-18
1.49778e-18
1.7276e-18
1.97723e-18
1.9794e-18
1.96786e-18
2.07008e-18
1.76463e-18
2.06442e-18
2.01184e-18
1.8252e-18
1.92739e-18
1.58134e-18
1.6251e-18
1.8349e-18
1.84226e-18
1.63121e-18
1.89739e-18
1.76272e-18
1.43314e-18
1.44696e-18
1.85489e-18
1.99277e-18
1.49786e-18
1.69428e-18
1.67889e-18
1.84575e-18
1.75824e-18
1.91088e-18
2.09336e-18
1.84021e-18
2.1844e-18
1.87648e-18
2.12104e-18
2.07102e-18
2.009e-18
1.84858e-18
1.77052e-18
1.57965e-18
2.23791e-18
2.03716e-18
1.98922e-18
2.22759e-18
1.79718e-18
1.55407e-18
1.46806e-18
1.65725e-18
2.02851e-18
1.97027e-18
1.49549e-18
1.78551e-18
1.5873e-18
1.75909e-18
2.08088e-18
2.41056e-18
2.95684e-18
2.24505e-18
1.86893e-18
1.50139e-18
1.58178e-18
1.57387e-18
1.61439e-18
1.94575e-18
2.25626e-18
1.57366e-18
1.63491e-18
1.75535e-18
1.86906e-18
1.83179e-18
2.15558e-18
1.52564e-18
2.13606e-18
1.60363e-18
1.29718e-18
1.60194e-18
1.99001e-18
1.43196e-18
1.55827e-18
1.78993e-18
1.52897e-18
1.4784e-18
1.42731e-18
1.36917e-18
1.85392e-18
1.84826e-18
1.49983e-18
1.60575e-18
1.59711e-18
1.47513e-18
1.79814e-18
1.92026e-18
1.85347e-18
2.00909e-18
2.21433e-18
1.55145e-18
1.52964e-18
1.98002e-18
1.63324e-18
1.78134e-18
1.89051e-18
2.09416e-18
2.30415e-18
1.85955e-18
1.91937e-18
1.68793e-18
1.61561e-18
1.53626e-18
2.42897e-18
2.7756e-18
2.25113e-18
2.41327e-18
2.49858e-18
2.52256e-18
3.12692e-18
2.69379e-18
3.08359e-18
2.99626e-18
2.554e-18
2.60148e-18
3.06703e-18
2.66004e-18
2.42853e-18
2.81155e-18
3.10179e-18
2.56998e-18
2.7126e-18
2.36813e-18
2.60818e-18
3.06921e-18
3.01704e-18
2.63551e-18
2.96231e-18
2.92856e-18
2.80796e-18
2.7216e-18
2.79744e-18
2.91459e-18
2.42601e-18
2.86946e-18
2.46618e-18
2.34811e-18
2.88097e-18
2.7167e-18
2.96644e-18
2.72555e-18
2.63029e-18
2.87731e-18
2.72602e-18
2.67331e-18
2.72439e-18
2.44768e-18
2.62434e-18
2.80779e-18
2.89127e-18
3.01913e-18
3.24874e-18
2.83778e-18
2.57753e-18
2.6892e-18
2.9652e-18
2.76223e-18
2.92186e-18
2.62679e-18
2.78199e-18
3.14559e-18
3.14299e-18
3.07986e-18
2.85776e-18
3.07291e-18
3.05591e-18
2.76899e-18
2.85396e-18
2.6181e-18
2.49006e-18
2.65178e-18
2.73e-18
3.05895e-18
2.74647e-18
3.14653e-18
2.74811e-18
3.15496e-18
2.54798e-18
2.95829e-18
2.97342e-18
3.0497e-18
2.6279e-18
2.78533e-18
2.98319e-18
2.80306e-18
2.83691e-18
2.97021e-18
3.10032e-18
2.71458e-18
2.57023e-18
2.76391e-18
2.82608e-18
2.56988e-18
2.72005e-18
2.27097e-18
2.66003e-18
2.64182e-18
2.77151e-18
2.95464e-18
3.02376e-18
2.76961e-18
2.80861e-18
2.70984e-18
2.79982e-18
2.38414e-18
2.66158e-18
2.98745e-18
3.08163e-18
2.62574e-18
2.9167e-18
3.14731e-18
2.39098e-18
2.88601e-18
3.07532e-18
2.35182e-18
2.57698e-18
3.1224e-18
2.9542e-18
2.87561e-18
2.70533e-18
2.63052e-18
3.19286e-18
3.14619e-18
2.99275e-18
3.35338e-18
2.71138e-18
2.69442e-18
2.63609e-18
2.83269e-18
2.86761e-18
2.72125e-18
2.37837e-18
2.6406e-18
2.89129e-18
2.30468e-18
2.85178e-18
3.04999e-18
3.1978e-18
2.57865e-18
2.63027e-18
2.81989e-18
2.90451e-18
3.30579e-18
2.82077e-18
2.44905e-18
2.90817e-18
3.01869e-18
2.72558e-18
3.13765e-18
2.8014e-18
2.48389e-18
2.21069e-18
2.563e-18
2.61799e-18
2.54133e-18
2.78931e-18
3.24983e-18
2.7572e-18
2.81817e-18
3.18868e-18
2.83484e-18
2.68732e-18
3.04879e-18
2.64487e-18
2.95459e-18
2.72925e-18
3.43939e-18
2.87792e-18
2.87892e-18
3.51817e-18
2.79477e-18
2.43113e-18
2.63768e-18
2.49043e-18
2.86675e-18
2.92717e-18
3.1457e-18
2.8205e-18
2.79317e-18
3.12277e-18
2.53448e-18
2.68929e-18
2.53735e-18
2.70043e-18
2.78817e-18
3.12146e-18
2.94422e-18
3.14573e-18
2.80721e-18
2.71521e-18
2.67322e-18
2.99196e-18
3.65859e-18
2.9034e-18
2.51665e-18
3.01372e-18
2.99171e-18
2.59134e-18
3.0135e-18
2.90017e-18
2.722e-18
2.94136e-18
3.45257e-18
2.59612e-18
2.75889e-18
2.82835e-18
3.20037e-18
3.37002e-18
3.2275e-18
2.80412e-18
2.77405e-18
2.79065e-18
3.37486e-18
2.77771e-18
2.56715e-18
2.69376e-18
3.12878e-18
3.09477e-18
2.79119e-18
2.73265e-18
2.86164e-18
3.02957e-18
2.74839e-18
2.98254e-18
2.66958e-18
2.63549e-18
2.58477e-18
2.66982e-18
2.84479e-18
2.30075e-18
2.95807e-18
3.39109e-18
2.90079e-18
2.53716e-18
2.57302e-18
3.03611e-18
2.98681e-18
2.72306e-18
2.69817e-18
2.75367e-18
2.9653e-18
3.41726e-18
2.74273e-18
2.94916e-18
3.11039e-18
2.33297e-18
2.67681e-18
2.80699e-18
3.00978e-18
2.74442e-18
2.47912e-18
2.99335e-18
3.20763e-18
2.93207e-18
3.03996e-18
2.69795e-18
2.5811e-18
2.74519e-18
2.64538e-18
5.36965e-18
4.96931e-18
4.54253e-18
4.66896e-18
5.32449e-18
4.64081e-18
4.81462e-18
4.88318e-18
5.48416e-18
4.56755e-18
4.50028e-18
5.28184e-18
5.593e-18
5.50838e-18
4.75169e-18
4.94135e-18
5.67517e-18
4.92054e-18
5.12065e-18
5.26054e-18
5.54337e-18
4.68577e-18
4.51084e-18
5.52713e-18
5.93114e-18
5.29809e-18
4.52222e-18
4.9326e-18
5.48065e-18
5.39399e-18
4.3962e-18
4.4655e-18
4.81423e-18
5.26613e-18
6.05306e-18
6.07461e-18
5.6783e-18
5.4987e-18
4.9315e-18
4.5838e-18
5.06021e-18
5.92471e-18
5.37329e-18
5.86297e-18
5.41981e-18
5.29407e-18
5.60341e-18
5.47843e-18
5.4683e-18
5.5636e-18
3.99891e-18
5.2839e-18
4.9327e-18
4.84837e-18
5.36464e-18
4.93049e-18
4.58199e-18
5.19111e-18
5.79157e-18
5.84154e-18
5.15251e-18
5.75269e-18
5.52391e-18
5.45429e-18
5.51828e-18
5.68963e-18
5.71716e-18
4.57279e-18
5.14787e-18
5.59721e-18
5.01014e-18
5.22778e-18
5.71467e-18
5.83838e-18
4.46999e-18
4.46371e-18
4.35169e-18
5.36303e-18
4.9478e-18
5.14242e-18
4.64616e-18
4.67634e-18
5.48545e-18
5.13529e-18
5.44713e-18
6.13353e-18
5.54182e-18
5.53842e-18
5.4638e-18
5.93382e-18
5.1551e-18
4.74629e-18
4.52417e-18
5.64508e-18
5.1428e-18
4.81909e-18
5.48767e-18
5.19709e-18
4.88524e-18
4.53267e-18
5.30099e-18
5.46127e-18
5.52557e-18
4.98377e-18
4.63772e-18
4.63182e-18
5.05581e-18
5.38295e-18
5.06306e-18
4.90864e-18
5.55949e-18
5.29827e-18
4.98656e-18
5.24787e-18
6.09639e-18
6.23519e-18
5.86466e-18
5.94106e-18
5.81374e-18
5.19935e-18
5.36859e-18
5.43776e-18
5.5687e-18
5.36548e-18
4.82568e-18
5.02396e-18
5.17357e-18
5.77248e-18
5.23653e-18
5.80956e-18
6.18312e-18
5.1959e-18
4.98665e-18
4.65309e-18
4.6387e-18
5.25845e-18
4.9239e-18
5.19438e-18
5.21804e-18
5.64335e-18
4.70005e-18
4.52997e-18
5.57315e-18
5.14769e-18
5.40288e-18
5.27459e-18
5.0411e-18
5.01805e-18
5.70389e-18
4.79027e-18
4.43948e-18
4.58397e-18
5.65323e-18
5.50886e-18
4.80501e-18
4.19807e-18
5.87763e-18
5.92461e-18
5.75588e-18
5.61221e-18
5.29865e-18
5.91842e-18
5.04238e-18
5.20845e-18
4.61562e-18
4.87845e-18
5.84867e-18
5.59302e-18
5.57576e-18
5.2972e-18
5.36818e-18
5.28229e-18
5.6422e-18
5.34201e-18
4.75552e-18
4.84467e-18
5.51383e-18
5.21129e-18
4.32094e-18
5.68479e-18
4.69997e-18
4.46604e-18
5.1034e-18
5.35653e-18
5.74377e-18
5.76836e-18
4.65348e-18
5.19542e-18
5.01032e-18
6.1002e-18
4.68118e-18
5.00421e-18
5.55498e-18
4.51214e-18
5.75695e-18
5.54489e-18
5.25245e-18
4.79268e-18
5.34521e-18
5.83247e-18
5.80549e-18
5.19334e-18
5.67148e-18
6.1463e-18
5.09131e-18
5.13035e-18
4.86641e-18
4.2325e-18
5.06055e-18
5.14073e-18
4.4801e-18
3.94431e-18
5.01501e-18
4.7858e-18
4.94783e-18
4.83354e-18
5.22721e-18
5.12347e-18
5.07494e-18
4.95113e-18
5.5591e-18
4.91409e-18
5.67019e-18
5.39452e-18
4.69768e-18
4.89576e-18
4.34015e-18
5.14418e-18
4.74038e-18
4.78872e-18
4.22623e-18
5.02077e-18
5.17955e-18
5.09079e-18
4.9383e-18
4.89191e-18
5.23673e-18
6.25583e-18
5.55852e-18
5.45252e-18
5.70705e-18
5.08086e-18
5.29369e-18
5.04363e-18
5.17543e-18
5.24496e-18
4.80666e-18
4.83586e-18
5.68873e-18
5.61152e-18
5.52973e-18
5.78987e-18
5.09174e-18
4.93067e-18
5.29855e-18
5.67417e-18
9.32393e-18
8.93595e-18
9.25447e-18
1.08837e-17
1.02597e-17
8.82595e-18
9.05208e-18
9.76499e-18
1.06681e-17
8.78628e-18
8.87323e-18
7.86806e-18
9.40838e-18
1.04334e-17
9.93481e-18
1.09288e-17
1.00594e-17
9.30603e-18
1.01675e-17
1.03112e-17
1.01019e-17
1.10451e-17
8.47285e-18
8.7766e-18
9.62724e-18
1.00492e-17
1.05225e-17
1.05185e-17
1.16613e-17
1.01603e-17
9.4798e-18
9.52589e-18
8.99211e-18
1.06711e-17
9.01855e-18
1.0466e-17
1.10851e-17
9.84718e-18
9.48005e-18
8.64996e-18
9.94696e-18
8.5857e-18
8.46211e-18
1.20705e-17
9.45185e-18
9.04861e-18
1.01888e-17
1.09909e-17
1.09972e-17
1.08505e-17
9.99661e-18
9.11427e-18
8.29555e-18
1.11373e-17
9.1286e-18
8.85917e-18
1.0805e-17
1.00556e-17
9.27564e-18
8.92928e-18
8.46692e-18
8.06467e-18
9.63603e-18
9.76e-18
1.05323e-17
1.01285e-17
1.12689e-17
1.00799e-17
9.46287e-18
1.02149e-17
1.10354e-17
1.08886e-17
1.01823e-17
9.41432e-18
9.68097e-18
9.67777e-18
9.54384e-18
9.52528e-18
8.96621e-18
9.55934e-18
9.36817e-18
8.88692e-18
1.00059e-17
1.0135e-17
9.75616e-18
9.85779e-18
9.48629e-18
1.06563e-17
9.90226e-18
1.07018e-17
1.14811e-17
9.32843e-18
9.84099e-18
1.12697e-17
8.87628e-18
9.16564e-18
1.0513e-17
9.75618e-18
1.01028e-17
1.00468e-17
9.63221e-18
1.0837e-17
9.58368e-18
8.87636e-18
9.30067e-18
8.55712e-18
8.40439e-18
9.25596e-18
1.03443e-17
9.87955e-18
1.02603e-17
8.99776e-18
9.25091e-18
1.06518e-17
9.55895e-18
9.95895e-18
1.05538e-17
9.87235e-18
9.38946e-18
9.41487e-18
1.16916e-17
1.07175e-17
9.89608e-18
9.69209e-18
9.34369e-18
1.01345e-17
1.01968e-17
1.03683e-17
9.77147e-18
9.68496e-18
8.53115e-18
8.92062e-18
8.82786e-18
9.04057e-18
9.23566e-18
9.2803e-18
9.37727e-18
1.05966e-17
9.89569e-18
8.99092e-18
9.22637e-18
9.38209e-18
1.05753e-17
1.02613e-17
1.02305e-17
1.09085e-17
1.07771e-17
8.86712e-18
9.70803e-18
8.89877e-18
8.92084e-18
9.41749e-18
8.34554e-18
8.10508e-18
9.00509e-18
9.072e-18
9.62052e-18
9.1303e-18
1.05665e-17
9.16157e-18
9.3078e-18
1.01798e-17
9.51652e-18
9.72676e-18
1.00673e-17
9.64078e-18
9.20036e-18
1.01215e-17
1.03389e-17
9.96519e-18
1.04876e-17
1.15696e-17
1.34027e-17
9.99065e-18
8.3227e-18
9.21844e-18
1.05078e-17
8.23523e-18
1.16471e-17
9.74117e-18
9.46464e-18
9.77351e-18
9.28e-18
8.9055e-18
8.94699e-18
8.91349e-18
9.11173e-18
1.02013e-17
9.373e-18
9.80677e-18
9.633e-18
9.63403e-18
9.59514e-18
9.96361e-18
9.3831e-18
8.74264e-18
8.75561e-18
9.65513e-18
9.02557e-18
7.89423e-18
1.03311e-17
1.02691e-17
9.71467e-18
1.12987e-17
8.71798e-18
9.09076e-18
1.16497e-17
1.01841e-17
9.83383e-18
1.01215e-17
8.66228e-18
9.92528e-18
9.93456e-18
8.82258e-18
9.36045e-18
8.81907e-18
8.84457e-18
9.36421e-18
8.86736e-18
7.53645e-18
8.39821e-18
1.10412e-17
1.11565e-17
8.53016e-18
8.76258e-18
9.72251e-18
9.11209e-18
9.64635e-18
9.44789e-18
9.16492e-18
8.70848e-18
1.00402e-17
1.05009e-17
1.0164e-17
8.17756e-18
7.8406e-18
9.09695e-18
9.84169e-18
9.98752e-18
1.00358e-17
9.43168e-18
9.34925e-18
8.59428e-18
9.70406e-18
8.47225e-18
9.02006e-18
1.06115e-17
9.88438e-18
1.16275e-17
8.88769e-18
8.72344e-18
1.00568e-17
1.01814e-17
9.84966e-18
1.03238e-17
1.01355e-17
1.93796e-17
1.87274e-17
1.93411e-17
2.02451e-17
1.90681e-17
1.72075e-17
1.76438e-17
1.73848e-17
1.99352e-17
1.80804e-17
1.73962e-17
1.499e-17
1.81509e-17
1.59492e-17
1.79764e-17
2.01733e-17
1.89206e-17
1.8072e-17
1.94419e-17
1.73194e-17
1.68376e-17
1.73907e-17
1.85618e-17
1.5667e-17
1.59072e-17
1.86393e-17
2.05951e-17
1.66762e-17
1.71348e-17
1.83885e-17
2.16775e-17
2.1054e-17
1.60868e-17
1.6481e-17
1.6385e-17
1.77151e-17
1.97401e-17
1.93047e-17
1.92333e-17
1.701e-17
1.67999e-17
1.94627e-17
1.87583e-17
1.93096e-17
1.65371e-17
1.6992e-17
1.70248e-17
1.88675e-17
1.93064e-17
1.71619e-17
1.64147e-17
1.707e-17
1.6572e-17
1.74981e-17
1.78342e-17
1.7373e-17
1.70374e-17
1.79641e-17
1.62795e-17
1.69758e-17
1.76904e-17
1.97082e-17
2.09889e-17
1.68813e-17
1.67711e-17
1.95847e-17
1.76042e-17
1.65048e-17
1.81881e-17
1.78044e-17
1.85425e-17
1.8355e-17
1.78687e-17
1.55525e-17
1.44019e-17
1.83862e-17
1.93258e-17
1.89791e-17
2.0094e-17
2.02985e-17
1.97052e-17
1.91406e-17
1.87958e-17
1.74319e-17
1.82169e-17
1.79024e-17
1.71057e-17
1.66462e-17
1.71036e-17
1.59747e-17
1.9006e-17
1.69086e-17
1.79215e-17
1.69261e-17
1.97868e-17
1.93735e-17
1.89676e-17
1.66978e-17
1.82531e-17
1.83215e-17
1.96013e-17
1.91471e-17
1.89867e-17
1.77145e-17
1.78822e-17
1.76012e-17
1.81968e-17
1.77509e-17
1.72878e-17
1.60185e-17
1.92946e-17
1.89874e-17
1.96275e-17
1.95661e-17
2.0365e-17
1.62561e-17
1.79272e-17
1.98392e-17
1.93989e-17
2.00945e-17
2.11861e-17
1.83986e-17
1.53775e-17
1.839e-17
1.8304e-17
1.76841e-17
1.73185e-17
2.00716e-17
1.91283e-17
1.99978e-17
1.53657e-17
1.71563e-17
1.83724e-17
1.65429e-17
1.88976e-17
1.87416e-17
1.83639e-17
1.79301e-17
2.02888e-17
1.94772e-17
1.75124e-17
1.64297e-17
1.9133e-17
1.84665e-17
1.90281e-17
1.87478e-17
1.90173e-17
1.74579e-17
1.74709e-17
1.68436e-17
1.9667e-17
1.84049e-17
1.84052e-17
1.28768e-17
1.51082e-17
2.15898e-17
1.89722e-17
1.58801e-17
1.58829e-17
1.8366e-17
2.11174e-17
1.80302e-17
1.77512e-17
1.56867e-17
1.80908e-17
1.7563e-17
1.66819e-17
1.71898e-17
1.73832e-17
1.9401e-17
1.6565e-17
1.80948e-17
2.03402e-17
2.13951e-17
1.81391e-17
1.72577e-17
2.06062e-17
1.74636e-17
1.72034e-17
1.84054e-17
1.74614e-17
2.13841e-17
1.64554e-17
1.87726e-17
1.79472e-17
1.68824e-17
2.10209e-17
1.99842e-17
2.28186e-17
1.92622e-17
1.7419e-17
1.92359e-17
1.72847e-17
1.4751e-17
1.73527e-17
1.77352e-17
1.79942e-17
1.80952e-17
1.74295e-17
1.65457e-17
1.93615e-17
1.94317e-17
1.82189e-17
2.04282e-17
1.93828e-17
1.87013e-17
1.99717e-17
2.13495e-17
1.80414e-17
1.58124e-17
1.82982e-17
1.96553e-17
1.83888e-17
1.85739e-17
2.01376e-17
1.87905e-17
1.44259e-17
1.69919e-17
1.90623e-17
1.78093e-17
1.44621e-17
1.72224e-17
1.65558e-17
1.73444e-17
1.86528e-17
1.72848e-17
1.92249e-17
1.92722e-17
1.86966e-17
1.90782e-17
1.96734e-17
1.85614e-17
1.71775e-17
1.68759e-17
1.64885e-17
1.65186e-17
1.68685e-17
1.49512e-17
1.71707e-17
1.94011e-17
1.54658e-17
1.7176e-17
1.9991e-17
1.85131e-17
1.85573e-17
1.93601e-17
1.86282e-17
1.77574e-17
1.93969e-17
1.57039e-17
1.67152e-17
1.67426e-17
1.82611e-17
1.52776e-17
1.63904e-17
1.76596e-17
3.29956e-17
3.43829e-17
3.64991e-17
3.81082e-17
3.85556e-17
3.54982e-17
3.52313e-17
3.09957e-17
3.43574e-17
2.98386e-17
2.87592e-17
3.25181e-17
3.48857e-17
2.9448e-17
2.90788e-17
4.05847e-17
3.38456e-17
3.13535e-17
3.28591e-17
3.22818e-17
3.13824e-17
3.04094e-17
3.61201e-17
3.30571e-17
3.46976e-17
3.66866e-17
3.64227e-17
2.93944e-17
3.2197e-17
3.66866e-17
3.33502e-17
3.07315e-17
2.94884e-17
3.07736e-17
3.16782e-17
3.76529e-17
3.8358e-17
4.04736e-17
3.62596e-17
3.34125e-17
3.56688e-17
4.19409e-17
4.18483e-17
3.24812e-17
3.69531e-17
3.46465e-17
3.20574e-17
3.48343e-17
4.08161e-17
3.61199e-17
3.82746e-17
3.82453e-17
3.34339e-17
3.39334e-17
3.21737e-17
3.40645e-17
4.29523e-17
3.54304e-17
3.33413e-17
3.33654e-17
3.47215e-17
3.37081e-17
3.48221e-17
3.30034e-17
3.15014e-17
3.46629e-17
3.47957e-17
3.52553e-17
3.76208e-17
3.56889e-17
3.33655e-17
3.73232e-17
3.75625e-17
3.30755e-17
3.36048e-17
3.67835e-17
3.61136e-17
3.46099e-17
3.42546e-17
3.02303e-17
2.75518e-17
3.15836e-17
3.51713e-17
3.31326e-17
3.54639e-17
3.21175e-17
3.33499e-17
3.43458e-17
3.13588e-17
2.7637e-17
3.54471e-17
3.21889e-17
3.29297e-17
3.16765e-17
3.61041e-17
4.01629e-17
3.07677e-17
2.99227e-17
3.07651e-17
3.06553e-17
3.66627e-17
3.13995e-17
3.24846e-17
3.3569e-17
3.5915e-17
3.86005e-17
3.41026e-17
3.76143e-17
3.46247e-17
3.28333e-17
3.81392e-17
3.38346e-17
3.56338e-17
3.9152e-17
3.32154e-17
3.38751e-17
3.0018e-17
3.62596e-17
3.829e-17
4.29137e-17
3.57774e-17
3.1035e-17
3.19428e-17
2.93022e-17
3.15511e-17
3.25898e-17
3.12128e-17
3.54322e-17
3.21436e-17
3.29838e-17
2.9485e-17
3.16998e-17
3.18762e-17
3.42171e-17
3.12892e-17
3.43568e-17
3.10287e-17
3.03737e-17
3.01433e-17
3.30869e-17
3.35283e-17
3.20282e-17
4.32126e-17
3.35034e-17
3.56466e-17
3.06629e-17
2.96228e-17
2.96303e-17
3.36107e-17
3.49744e-17
3.69924e-17
4.01429e-17
3.71098e-17
3.20952e-17
3.25863e-17
3.52771e-17
3.58835e-17
3.32859e-17
3.4583e-17
2.68844e-17
3.53083e-17
3.95873e-17
3.36939e-17
3.33454e-17
3.09403e-17
3.08758e-17
3.5236e-17
3.24792e-17
3.73522e-17
3.53655e-17
3.00876e-17
3.38641e-17
3.60305e-17
3.6229e-17
3.24218e-17
3.39703e-17
3.54487e-17
3.54095e-17
3.28241e-17
3.38709e-17
3.35727e-17
3.72496e-17
3.16258e-17
3.3753e-17
4.08292e-17
3.46895e-17
3.06893e-17
3.26011e-17
3.97477e-17
3.26716e-17
3.25333e-17
3.08661e-17
3.57956e-17
3.45248e-17
3.72274e-17
3.35321e-17
3.26043e-17
3.26686e-17
3.60893e-17
3.38072e-17
3.8135e-17
3.49918e-17
3.52168e-17
3.59106e-17
3.11735e-17
3.34342e-17
3.4203e-17
3.67489e-17
3.11946e-17
3.36219e-17
3.55066e-17
3.33971e-17
3.23131e-17
2.91303e-17
3.47982e-17
3.01311e-17
2.64948e-17
3.43424e-17
3.38138e-17
3.72422e-17
2.99977e-17
3.43724e-17
3.02946e-17
2.98338e-17
3.55399e-17
3.44603e-17
3.49812e-17
3.48327e-17
3.62951e-17
4.01722e-17
3.54066e-17
3.39184e-17
3.39124e-17
3.27379e-17
3.6993e-17
3.56739e-17
3.0501e-17
2.8581e-17
2.92836e-17
2.91351e-17
3.44433e-17
3.3299e-17
3.51494e-17
3.43464e-17
3.62495e-17
3.59293e-17
3.22063e-17
3.19841e-17
3.25652e-17
3.1529e-17
3.37777e-17
3.83948e-17
3.52372e-17
3.3176e-17
3.38216e-17
3.65435e-17
6.17982e-17
6.97397e-17
5.60121e-17
5.72191e-17
6.52853e-17
6.13685e-17
6.35736e-17
5.76133e-17
5.29337e-17
5.99585e-17
7.44895e-17
7.75988e-17
5.9917e-17
5.91744e-17
6.37099e-17
6.97636e-17
6.67999e-17
5.57361e-17
5.75e-17
5.41738e-17
6.30783e-17
6.36545e-17
6.02272e-17
6.49691e-17
7.54231e-17
6.82616e-17
6.66759e-17
6.6727e-17
6.17939e-17
5.29932e-17
5.41334e-17
6.3497e-17
6.41618e-17
6.33095e-17
7.5215e-17
6.8734e-17
5.06767e-17
6.39125e-17
5.68751e-17
6.5067e-17
6.77392e-17
7.13839e-17
6.10717e-17
5.88388e-17
6.39608e-17
6.44671e-17
6.19007e-17
6.54867e-17
6.05185e-17
6.61381e-17
6.5446e-17
5.91609e-17
6.41189e-17
7.14529e-17
6.51871e-17
6.90494e-17
7.55171e-17
6.37748e-17
6.54981e-17
6.32319e-17
5.51066e-17
6.04715e-17
6.82202e-17
6.19024e-17
5.74262e-17
6.23904e-17
6.64435e-17
6.28659e-17
6.11517e-17
6.07749e-17
6.39969e-17
6.31894e-17
5.92124e-17
5.9364e-17
5.67052e-17
6.92632e-17
7.25748e-17
5.25169e-17
5.23358e-17
6.55861e-17
5.43877e-17
6.16574e-17
6.78731e-17
7.10576e-17
6.16422e-17
5.99103e-17
6.32363e-17
5.80785e-17
5.51527e-17
5.37805e-17
6.64785e-17
6.21688e-17
6.59196e-17
6.61004e-17
7.07375e-17
6.98413e-17
5.49712e-17
6.41179e-17
6.14532e-17
5.79368e-17
6.09759e-17
6.04576e-17
6.24422e-17
7.50343e-17
6.194e-17
6.229e-17
5.93263e-17
6.83895e-17
6.11597e-17
5.16333e-17
6.02658e-17
7.61587e-17
6.26772e-17
6.07096e-17
6.26476e-17
6.35742e-17
6.22367e-17
6.46977e-17
5.69737e-17
5.79925e-17
6.11765e-17
5.70624e-17
6.34328e-17
7.15892e-17
7.23467e-17
5.5172e-17
5.7479e-17
5.96151e-17
5.90513e-17
7.40695e-17
6.71518e-17
7.40131e-17
5.61963e-17
6.3249e-17
6.33024e-17
6.0523e-17
6.66357e-17
5.96891e-17
5.22008e-17
6.49727e-17
5.97609e-17
6.59662e-17
5.91752e-17
5.7743e-17
6.41995e-17
6.63189e-17
6.1274e-17
5.89085e-17
6.15834e-17
6.3141e-17
6.85822e-17
6.14406e-17
5.80811e-17
6.01429e-17
6.46307e-17
6.44815e-17
5.87531e-17
5.84883e-17
6.82318e-17
5.57267e-17
6.4137e-17
6.99131e-17
6.50316e-17
6.27383e-17
7.26979e-17
6.47017e-17
5.78834e-17
6.36451e-17
7.3867e-17
6.4773e-17
5.39966e-17
6.66129e-17
6.53145e-17
6.31727e-17
6.54485e-17
6.46148e-17
6.25559e-17
6.6768e-17
6.29558e-17
5.91063e-17
5.97677e-17
6.64584e-17
6.67057e-17
5.93769e-17
6.5813e-17
6.4221e-17
6.88123e-17
7.22119e-17
6.73607e-17
5.92917e-17
5.6711e-17
5.99995e-17
7.41285e-17
6.29043e-17
6.45359e-17
5.95479e-17
6.39994e-17
6.44943e-17
5.85071e-17
6.69277e-17
6.72526e-17
6.72596e-17
6.02659e-17
6.70882e-17
6.32471e-17
5.82815e-17
5.72958e-17
6.67085e-17
6.02973e-17
6.53397e-17
6.6504e-17
6.21239e-17
6.20399e-17
6.39305e-17
6.0587e-17
6.01129e-17
6.54312e-17
7.18032e-17
6.94357e-17
6.62455e-17
6.07166e-17
6.6904e-17
5.97604e-17
5.84788e-17
6.15313e-17
6.42791e-17
5.90736e-17
6.3747e-17
5.42377e-17
5.37375e-17
6.01839e-17
6.23653e-17
6.73503e-17
7.12613e-17
6.85246e-17
6.96235e-17
5.74508e-17
6.18223e-17
6.39878e-17
5.87019e-17
5.04456e-17
6.48241e-17
6.58327e-17
6.41911e-17
7.24108e-17
6.29741e-17
6.1978e-17
6.51447e-17
5.4556e-17
6.86577e-17
7.32041e-17
5.82517e-17
6.32743e-17
6.27508e-17
6.34283e-17
6.26837e-17
1.21302e-16
1.09843e-16
1.09026e-16
1.14043e-16
1.14168e-16
1.26619e-16
1.32275e-16
1.00809e-16
1.16822e-16
1.14338e-16
1.09077e-16
1.167e-16
1.0621e-16
1.02411e-16
1.19318e-16
9.59745e-17
1.14245e-16
1.01656e-16
1.01468e-16
1.10903e-16
1.28672e-16
1.06979e-16
1.23352e-16
1.18015e-16
1.20432e-16
1.13288e-16
1.23457e-16
1.27944e-16
9.94205e-17
1.04036e-16
1.2435e-16
1.34356e-16
1.38556e-16
1.24264e-16
1.13679e-16
1.23026e-16
1.06898e-16
1.30971e-16
1.25296e-16
1.10852e-16
1.08172e-16
1.38265e-16
1.28459e-16
1.28325e-16
1.30596e-16
1.18963e-16
1.10814e-16
1.26336e-16
9.85214e-17
1.31333e-16
1.13122e-16
1.37248e-16
1.18088e-16
1.24244e-16
1.29354e-16
1.27776e-16
1.30397e-16
1.32394e-16
1.3799e-16
1.22484e-16
1.23503e-16
1.23788e-16
1.3253e-16
1.0742e-16
1.08471e-16
1.12809e-16
1.37899e-16
1.28277e-16
1.11455e-16
1.09299e-16
1.05683e-16
1.09568e-16
1.1428e-16
1.28609e-16
1.10868e-16
1.26794e-16
1.47814e-16
1.35114e-16
1.17296e-16
1.13872e-16
9.41839e-17
1.09748e-16
1.33952e-16
1.30427e-16
1.1288e-16
1.10896e-16
1.22884e-16
1.17686e-16
1.28651e-16
1.20315e-16
1.12544e-16
1.36505e-16
1.17935e-16
1.14364e-16
1.20465e-16
1.18466e-16
1.24977e-16
1.20747e-16
1.133e-16
1.21406e-16
1.25058e-16
1.34651e-16
1.23809e-16
1.20823e-16
1.27664e-16
1.2186e-16
1.0138e-16
1.17278e-16
1.11664e-16
1.18168e-16
1.17108e-16
1.24507e-16
1.24663e-16
1.09863e-16
1.1224e-16
1.22845e-16
1.1838e-16
1.05124e-16
8.76665e-17
8.72666e-17
9.26827e-17
1.13821e-16
1.06689e-16
1.29451e-16
1.41369e-16
1.01006e-16
1.11216e-16
1.09641e-16
1.16586e-16
1.2366e-16
1.13417e-16
1.15374e-16
1.18731e-16
1.29418e-16
1.08895e-16
1.03633e-16
1.12452e-16
1.19304e-16
1.07215e-16
1.08871e-16
1.15898e-16
1.17643e-16
1.09771e-16
1.04681e-16
1.29209e-16
1.25663e-16
1.31954e-16
1.41607e-16
1.22176e-16
1.05361e-16
1.05746e-16
1.20156e-16
1.18333e-16
1.13286e-16
1.08274e-16
1.05866e-16
1.13078e-16
1.14108e-16
1.23069e-16
1.25692e-16
1.05501e-16
1.29334e-16
1.2478e-16
1.2139e-16
1.09787e-16
1.05274e-16
1.19347e-16
1.22403e-16
1.1171e-16
1.22539e-16
1.23608e-16
1.20521e-16
1.10421e-16
1.05307e-16
1.09372e-16
1.20245e-16
1.34559e-16
1.27985e-16
1.37775e-16
1.31476e-16
1.35253e-16
1.31615e-16
1.0515e-16
1.08543e-16
1.2832e-16
1.28743e-16
1.2093e-16
1.21199e-16
1.24358e-16
1.26544e-16
1.12373e-16
1.09663e-16
1.1962e-16
1.13139e-16
1.29297e-16
1.07089e-16
1.23696e-16
1.1887e-16
9.66327e-17
1.06486e-16
1.11531e-16
1.25222e-16
1.1231e-16
1.12505e-16
1.05908e-16
1.17425e-16
1.21071e-16
1.15781e-16
1.13344e-16
1.15559e-16
1.20717e-16
1.00452e-16
1.11054e-16
1.05112e-16
1.25118e-16
1.36889e-16
1.13292e-16
1.22286e-16
1.22775e-16
1.20279e-16
1.32063e-16
1.42055e-16
1.2107e-16
1.24928e-16
1.3119e-16
1.17289e-16
1.21863e-16
1.03057e-16
1.19822e-16
1.29619e-16
1.29899e-16
1.17242e-16
1.17241e-16
1.22505e-16
1.14748e-16
1.13338e-16
1.03465e-16
1.18256e-16
1.37411e-16
1.26173e-16
9.57637e-17
1.2541e-16
1.1677e-16
1.29805e-16
1.23433e-16
1.24404e-16
1.16352e-16
1.46329e-16
1.15547e-16
1.31144e-16
1.27429e-16
1.19123e-16
1.10846e-16
1.11577e-16
1.14548e-16
1.20528e-16
2.30951e-16
2.36017e-16
2.25877e-16
2.1458e-16
2.19259e-16
2.70888e-16
2.37909e-16
2.03238e-16
2.42852e-16
2.19225e-16
2.39113e-16
2.06384e-16
1.87321e-16
2.16547e-16
2.24437e-16
1.96813e-16
2.71633e-16
2.07489e-16
2.21529e-16
2.03686e-16
2.48122e-16
1.73648e-16
2.35735e-16
2.47168e-16
2.36e-16
2.47596e-16
2.10954e-16
2.0856e-16
2.12713e-16
2.00436e-16
2.53965e-16
2.21576e-16
2.35555e-16
2.25881e-16
2.17103e-16
2.38202e-16
2.15627e-16
2.06449e-16
2.43876e-16
2.33453e-16
2.2643e-16
1.9571e-16
2.25083e-16
2.32272e-16
2.56219e-16
2.10661e-16
2.1135e-16
2.05346e-16
1.96474e-16
2.45938e-16
2.31383e-16
2.67494e-16
2.38255e-16
2.45718e-16
2.3794e-16
2.07663e-16
2.14679e-16
2.32057e-16
2.53427e-16
2.55154e-16
2.1822e-16
2.15635e-16
2.05009e-16
1.88019e-16
2.02451e-16
1.95916e-16
2.07693e-16
2.32107e-16
2.23354e-16
2.27621e-16
2.31466e-16
2.15484e-16
2.1889e-16
2.5501e-16
1.88519e-16
2.03411e-16
2.23636e-16
2.60613e-16
2.85935e-16
2.63126e-16
2.36271e-16
2.33562e-16
2.32992e-16
2.12862e-16
2.34269e-16
2.09669e-16
2.02954e-16
2.11616e-16
1.92978e-16
2.20577e-16
2.21626e-16
2.40293e-16
2.00528e-16
2.1855e-16
2.31815e-16
2.04944e-16
2.40648e-16
2.59873e-16
2.4015e-16
2.1809e-16
2.09512e-16
2.08467e-16
2.35824e-16
2.38284e-16
2.38105e-16
2.29637e-16
2.30181e-16
2.06444e-16
2.16263e-16
2.21436e-16
2.23329e-16
2.57087e-16
2.28603e-16
1.96517e-16
2.46259e-16
2.18435e-16
2.34926e-16
2.06099e-16
2.19437e-16
2.28153e-16
2.0993e-16
2.0605e-16
1.96006e-16
2.14538e-16
1.99108e-16
2.01711e-16
2.59557e-16
2.04337e-16
1.90476e-16
1.99538e-16
1.96877e-16
2.22258e-16
2.15924e-16
2.45848e-16
2.19637e-16
2.10345e-16
2.21029e-16
2.38226e-16
2.40286e-16
2.39595e-16
2.10277e-16
2.29405e-16
2.10106e-16
1.95863e-16
2.28084e-16
2.55518e-16
2.52472e-16
2.22935e-16
2.36034e-16
2.46039e-16
2.20344e-16
2.57572e-16
2.30791e-16
2.29119e-16
2.58564e-16
2.3048e-16
2.17888e-16
1.65016e-16
2.0874e-16
2.51053e-16
2.58262e-16
2.43701e-16
2.40563e-16
2.26883e-16
1.95907e-16
2.00402e-16
2.11984e-16
2.11186e-16
2.14076e-16
2.07574e-16
2.15917e-16
2.21396e-16
2.31448e-16
2.06096e-16
2.11048e-16
2.55006e-16
2.27752e-16
2.09585e-16
2.46213e-16
2.38916e-16
2.22412e-16
2.06335e-16
2.01056e-16
2.23106e-16
2.52171e-16
2.24177e-16
2.09252e-16
2.3977e-16
2.09924e-16
2.08349e-16
2.18566e-16
2.05642e-16
2.18074e-16
2.12135e-16
2.19575e-16
1.96351e-16
2.27131e-16
2.24718e-16
2.25256e-16
2.11447e-16
2.19273e-16
2.08681e-16
2.28279e-16
2.16278e-16
2.04445e-16
2.07057e-16
2.39422e-16
2.00145e-16
2.28597e-16
2.50586e-16
2.34975e-16
2.02774e-16
2.1277e-16
2.04275e-16
2.27306e-16
2.48428e-16
2.02933e-16
2.55124e-16
2.24503e-16
2.32767e-16
2.15967e-16
2.17365e-16
2.58077e-16
2.00311e-16
2.03808e-16
2.26049e-16
2.31726e-16
2.12335e-16
2.25928e-16
2.43495e-16
2.28456e-16
2.3963e-16
2.08476e-16
2.10565e-16
2.23875e-16
2.32104e-16
2.3608e-16
2.32035e-16
2.52141e-16
2.01371e-16
2.18997e-16
2.4186e-16
2.08935e-16
2.30241e-16
2.32371e-16
1.99879e-16
2.11207e-16
1.88347e-16
2.18153e-16
2.4179e-16
2.59624e-16
2.22213e-16
1.89794e-16
1.87425e-16
2.23469e-16
2.24203e-16
4.51009e-16
4.03118e-16
3.51605e-16
3.77419e-16
4.32537e-16
4.56781e-16
3.16706e-16
3.82671e-16
4.20423e-16
4.5264e-16
4.65576e-16
3.77412e-16
3.3782e-16
4.58007e-16
4.70464e-16
4.01001e-16
5.02684e-16
4.41786e-16
3.8033e-16
3.82588e-16
3.99034e-16
3.57383e-16
4.44325e-16
4.02729e-16
4.63097e-16
4.6411e-16
3.91127e-16
4.25464e-16
3.77523e-16
4.3145e-16
4.23774e-16
4.0659e-16
3.82009e-16
3.993e-16
4.20972e-16
4.06887e-16
4.18789e-16
4.74404e-16
4.20836e-16
3.49278e-16
4.16042e-16
3.83734e-16
3.76066e-16
3.98118e-16
4.9424e-16
4.16411e-16
4.26692e-16
3.8154e-16
4.15049e-16
4.65702e-16
4.44947e-16
4.54694e-16
4.26436e-16
3.60653e-16
3.85502e-16
4.41006e-16
3.92532e-16
3.64406e-16
3.8382e-16
3.97305e-16
4.14741e-16
3.89915e-16
4.25043e-16
4.09616e-16
3.86195e-16
3.40177e-16
4.26347e-16
4.17033e-16
4.35869e-16
4.40721e-16
3.96255e-16
3.65455e-16
4.12364e-16
4.34314e-16
4.19653e-16
4.03285e-16
4.2364e-16
4.14142e-16
4.96271e-16
4.18712e-16
3.39332e-16
3.77376e-16
4.20577e-16
4.32883e-16
3.51738e-16
3.93533e-16
4.50803e-16
3.96651e-16
3.64881e-16
4.21381e-16
4.12392e-16
4.15757e-16
4.09589e-16
3.79974e-16
3.86705e-16
4.19211e-16
3.75628e-16
4.15876e-16
3.88068e-16
3.97065e-16
4.52401e-16
5.1385e-16
4.25104e-16
4.10245e-16
4.57232e-16
4.6154e-16
3.8149e-16
3.90861e-16
3.79032e-16
4.25593e-16
4.04888e-16
4.02129e-16
3.88063e-16
3.45008e-16
4.19834e-16
3.63956e-16
3.88206e-16
4.09058e-16
4.02285e-16
3.85138e-16
4.30127e-16
3.74624e-16
3.88471e-16
4.03046e-16
3.61717e-16
3.09458e-16
4.04468e-16
3.99856e-16
4.62391e-16
3.86607e-16
3.83526e-16
3.74718e-16
4.19161e-16
4.56058e-16
4.15788e-16
3.90232e-16
4.23143e-16
4.06889e-16
3.69942e-16
3.70007e-16
3.9863e-16
4.18083e-16
4.47484e-16
3.96845e-16
4.05158e-16
4.00262e-16
3.81446e-16
4.13216e-16
4.1594e-16
3.96737e-16
4.35126e-16
4.26739e-16
4.54724e-16
3.94411e-16
5.39991e-16
3.98095e-16
4.05633e-16
3.94821e-16
4.06878e-16
3.95276e-16
4.44548e-16
4.32091e-16
4.01298e-16
3.82957e-16
4.56101e-16
4.38375e-16
4.14405e-16
3.73146e-16
3.86969e-16
4.29118e-16
4.7159e-16
4.5137e-16
4.52853e-16
3.8512e-16
4.15008e-16
4.24662e-16
4.20786e-16
3.55169e-16
3.57188e-16
3.93767e-16
4.12705e-16
4.17957e-16
3.92871e-16
4.6389e-16
4.30665e-16
3.38434e-16
3.53528e-16
3.35721e-16
4.18324e-16
4.52096e-16
4.17907e-16
3.60799e-16
4.21685e-16
4.22423e-16
4.30961e-16
4.3794e-16
4.00565e-16
4.109e-16
3.79516e-16
3.64891e-16
3.89446e-16
3.56237e-16