# vtk DataFile Version 1.0
Ion Density - Current Sheet
ASCII
DATASET STRUCTURED_POINTS
DIMENSIONS 256 128 1
ORIGIN 0 0 0
SPACING 0.15625 0.15625 1
POINT_DATA 32768
SCALARS rhoi float
LOOKUP_TABLE default
1.88486e-18
1.73636e-18
1.78743e-18
1.85742e-18
2.21004e-18
1.9401e-18
2.03305e-18
1.83581e-18
2.04139e-18
2.00846e-18
1.91613e-18
2.13405e-18
1.90227e-18
1.56129e-18
1.6921e-18
1.90778e-18
1.91997e-18
2.03929e-18
1.96197e-18
1.79091e-18
1.87582e-18
2.15515e-18
2.01012e-18
1.92866e-18
1.87093e-18
1.95236e-18
1.86661e-18
1.74566e-18
1.79425e-18
1.92361e-18
2.04613e-18
1.78754e-18
2.00159e-18
1.93897e-18
1.85016e-18
1.63246e-18
1.80276e-18
2.00971e-18
2.18664e-18
1.71312e-18
1.69993e-18
1.94393e-18
2.16091e-18
2.0191e-18
1.58857e-18
1.77616e-18
1.96614e-18
1.98353e-18
1.7948e-18
1.84504e-18
1.84518e-18
2.05341e-18
1.7361e-18
1.90367e-18
1.81863e-18
1.97846e-18
1.84458e-18
1.79995e-18
1.76435e-18
1.85242e-18
1.91579e-18
2.11301e-18
2.12517e-18
1.9437e-18
1.95192e-18
1.76947e-18
1.67776e-18
1.73522e-18
1.61717e-18
1.8081e-18
1.95723e-18
2.08312e-18
1.55566e-18
1.70916e-18
1.70105e-18
1.73217e-18
1.78104e-18
1.79807e-18
1.82065e-18
1.98e-18
1.8677e-18
1.97773e-18
1.931e-18
1.62807e-18
2.2192e-18
1.93371e-18
1.66885e-18
1.87975e-18
1.82934e-18
1.75214e-18
1.6895e-18
1.49825e-18
1.58175e-18
2.00185e-18
1.99941e-18
1.94129e-18
2.03222e-18
1.78295e-18
1.83569e-18
1.8898e-18
1.72258e-18
1.81308e-18
1.54104e-18
1.71694e-18
1.88474e-18
1.83502e-18
1.69232e-18
1.8914e-18
1.98648e-18
1.63664e-18
1.80148e-18
1.87577e-18
2.08309e-18
1.89337e-18
2.10845e-18
1.85527e-18
1.85644e-18
1.78283e-18
1.75511e-18
1.7574e-18
1.66201e-18
1.96484e-18
1.77422e-18
1.82776e-18
2.14484e-18
1.82556e-18
2.02172e-18
1.91252e-18
1.68311e-18
1.77331e-18
1.83418e-18
1.59294e-18
2.204e-18
2.06514e-18
1.70472e-18
2.09361e-18
1.86099e-18
1.89424e-18
1.94324e-18
2.1304e-18
1.67993e-18
1.78169e-18
1.75184e-18
1.88748e-18
2.09808e-18
1.75788e-18
1.61823e-18
2.05634e-18
1.73267e-18
1.84152e-18
1.96935e-18
1.75248e-18
1.85459e-18
1.89004e-18
2.06888e-18
2.06399e-18
2.13664e-18
1.78329e-18
1.86257e-18
2.00999e-18
1.78132e-18
1.98076e-18
1.92507e-18
1.39647e-18
2.01055e-18
1.94229e-18
1.75675e-18
2.18287e-18
1.78948e-18
1.77808e-18
1.77426e-18
1.78334e-18
1.94369e-18
1.62592e-18
1.87278e-18
1.9869e-18
1.80755e-18
1.73315e-18
1.85517e-18
1.95696e-18
1.75046e-18
2.09726e-18
2.15348e-18
1.72372e-18
1.76679e-18
1.7474e-18
1.99956e-18
1.83284e-18
2.03487e-18
1.97738e-18
1.90026e-18
1.92513e-18
1.84517e-18
1.95204e-18
1.90387e-18
1.8916e-18
1.87575e-18
1.95135e-18
1.82032e-18
2.1083e-18
1.95361e-18
1.83611e-18
1.86525e-18
1.96036e-18
1.96958e-18
2.04614e-18
1.87865e-18
1.64414e-18
1.66153e-18
1.70496e-18
1.77832e-18
2.11874e-18
1.85495e-18
2.00481e-18
1.8402e-18
1.84342e-18
1.98069e-18
2.26296e-18
1.93548e-18
2.21927e-18
1.85809e-18
1.6466e-18
1.50647e-18
1.5381e-18
1.7568e-18
1.95362e-18
1.87334e-18
1.73226e-18
1.85276e-18
1.88063e-18
1.72123e-18
1.69634e-18
1.91365e-18
2.1252e-18
1.64368e-18
1.94459e-18
1.84269e-18
1.87994e-18
1.86581e-18
1.79421e-18
1.67123e-18
1.73639e-18
1.73826e-18
1.92245e-18
1.79187e-18
2.18535e-18
1.90814e-18
1.99416e-18
2.45408e-18
1.81122e-18
1.66059e-18
1.73386e-18
1.95162e-18
1.65013e-18
1.62352e-18
1.55326e-18
2.47661e-18
2.62709e-18
2.64492e-18
2.38917e-18
2.61264e-18
2.98394e-18
2.81096e-18
2.52785e-18
2.70749e-18
2.90353e-18
2.91025e-18
3.01242e-18
3.0486e-18
2.73061e-18
2.65211e-18
2.55731e-18
2.78564e-18
2.94777e-18
2.79645e-18
2.76652e-18
2.77457e-18
2.64784e-18
2.76291e-18
2.89582e-18
2.89195e-18
2.98923e-18
3.07772e-18
2.75221e-18
2.93139e-18
2.94248e-18
3.01649e-18
2.64345e-18
2.5934e-18
2.82801e-18
2.91632e-18
2.86481e-18
2.92685e-18
2.76608e-18
3.13146e-18
2.75933e-18
2.78234e-18
2.94505e-18
2.94331e-18
2.70865e-18
2.93947e-18
2.66176e-18
3.188e-18
2.89293e-18
2.66037e-18
2.96574e-18
2.81188e-18
2.8022e-18
2.78732e-18
2.51448e-18
2.53751e-18
2.75406e-18
2.82014e-18
2.99065e-18
2.75759e-18
2.82088e-18
2.85766e-18
2.85382e-18
2.86901e-18
2.73178e-18
2.74872e-18
2.90689e-18
2.62157e-18
2.52298e-18
2.49364e-18
2.81098e-18
3.03718e-18
2.94071e-18
2.77145e-18
2.9145e-18
2.97923e-18
2.796e-18
2.60015e-18
2.641e-18
2.67528e-18
2.75712e-18
2.99043e-18
3.06314e-18
2.87728e-18
2.77521e-18
2.76702e-18
2.89458e-18
3.02339e-18
2.93041e-18
2.75292e-18
2.46149e-18
2.83788e-18
2.67466e-18
2.72857e-18
2.54108e-18
2.65669e-18
3.01263e-18
2.89229e-18
2.76951e-18
2.7726e-18
2.98372e-18
2.79859e-18
2.8658e-18
2.86884e-18
2.76542e-18
2.86376e-18
2.69411e-18
2.82252e-18
2.66469e-18
3.09854e-18
2.76835e-18
3.10698e-18
2.5316e-18
3.04975e-18
2.63325e-18
2.4895e-18
2.77885e-18
2.60884e-18
2.73168e-18
2.94305e-18
2.98366e-18
2.75422e-18
2.81132e-18
2.92138e-18
2.4847e-18
2.71797e-18
3.01723e-18
3.01222e-18
2.65729e-18
2.45347e-18
2.8004e-18
2.82415e-18
2.44456e-18
2.81164e-18
2.74375e-18
2.67384e-18
2.93871e-18
2.78183e-18
2.95561e-18
2.78088e-18
2.73981e-18
2.67545e-18
2.71761e-18
2.81905e-18
2.77438e-18
3.07378e-18
2.84451e-18
2.42011e-18
2.78602e-18
2.75721e-18
2.60746e-18
2.75341e-18
2.66381e-18
2.93961e-18
3.14486e-18
3.00029e-18
2.92075e-18
2.81695e-18
2.80548e-18
2.78383e-18
3.03588e-18
2.67763e-18
2.91827e-18
2.86981e-18
2.55292e-18
2.85413e-18
3.00243e-18
2.85127e-18
2.75438e-18
2.52502e-18
2.6275e-18
2.79484e-18
2.70878e-18
2.7506e-18
2.72938e-18
2.81639e-18
2.9688e-18
2.52049e-18
2.84393e-18
2.85491e-18
2.79014e-18
2.76986e-18
2.86342e-18
2.79663e-18
2.89204e-18
2.97379e-18
2.73528e-18
2.65928e-18
2.67359e-18
2.84657e-18
3.00393e-18
3.16228e-18
2.76574e-18
2.65443e-18
2.68543e-18
2.68088e-18
2.96262e-18
2.97162e-18
2.78702e-18
2.77151e-18
2.86019e-18
2.87459e-18
2.92192e-18
2.71192e-18
2.97131e-18
2.87097e-18
3.07644e-18
2.72547e-18
2.80507e-18
3.08591e-18
2.69189e-18
2.68841e-18
2.99352e-18
2.59549e-18
2.71263e-18
2.70633e-18
2.6476e-18
2.71369e-18
2.83952e-18
2.65948e-18
2.89804e-18
2.51023e-18
2.74717e-18
2.86018e-18
2.59581e-18
2.62451e-18
2.56246e-18
2.85004e-18
2.71358e-18
2.81475e-18
2.97439e-18
2.55409e-18
2.75475e-18
2.57677e-18
3.16642e-18
2.6646e-18
2.59627e-18
2.71166e-18
2.88402e-18
3.08027e-18
2.92137e-18
2.83655e-18
3.16251e-18
3.01244e-18
2.8496e-18
2.49935e-18
2.73873e-18
2.50363e-18
2.59112e-18
3.02509e-18
2.77804e-18
3.00067e-18
3.16263e-18
2.85652e-18
2.72927e-18
2.72957e-18
2.76418e-18
5.69074e-18
4.52516e-18
5.45694e-18
4.82097e-18
4.9213e-18
5.15385e-18
4.78453e-18
5.35442e-18
5.35508e-18
4.77366e-18
4.75917e-18
5.49239e-18
5.17008e-18
4.86031e-18
5.00373e-18
5.38507e-18
5.25667e-18
4.86117e-18
5.45742e-18
4.6199e-18
5.39117e-18
5.10505e-18
5.24205e-18
4.99353e-18
4.99038e-18
4.71884e-18
4.95171e-18
4.98983e-18
5.15179e-18
4.68564e-18
5.07089e-18
4.97941e-18
5.36555e-18
4.87346e-18
5.10676e-18
5.49327e-18
5.27661e-18
5.05211e-18
4.99279e-18
4.96787e-18
5.33293e-18
5.07363e-18
5.37051e-18
5.15481e-18
4.99056e-18
5.10058e-18
5.49264e-18
5.33599e-18
4.76807e-18
5.1145e-18
4.84791e-18
4.65846e-18
5.58663e-18
5.28882e-18
5.35541e-18
5.00855e-18
5.07996e-18
5.87553e-18
5.39229e-18
5.23228e-18
4.93868e-18
5.42407e-18
5.51544e-18
5.18574e-18
4.92224e-18
5.21529e-18
5.71854e-18
5.91524e-18
5.33681e-18
5.48135e-18
5.10753e-18
5.54862e-18
5.7371e-18
5.38008e-18
5.3709e-18
5.06613e-18
5.24219e-18
5.70852e-18
5.07475e-18
5.45163e-18
5.08332e-18
4.89074e-18
5.11913e-18
5.65224e-18
4.83661e-18
5.56106e-18
5.50272e-18
5.33118e-18
4.95123e-18
5.16928e-18
5.50267e-18
5.36702e-18
4.95538e-18
5.42685e-18
5.23641e-18
5.2367e-18
5.3313e-18
4.99147e-18
5.16474e-18
4.90564e-18
4.63938e-18
4.98596e-18
5.19527e-18
5.57641e-18
5.41619e-18
4.87518e-18
5.49309e-18
5.14425e-18
5.22302e-18
5.37647e-18
5.30187e-18
5.02939e-18
5.22229e-18
5.12858e-18
5.57044e-18
5.59257e-18
5.71941e-18
5.47076e-18
5.03747e-18
5.47086e-18
5.25971e-18
5.02556e-18
5.40274e-18
4.91585e-18
4.9256e-18
4.83181e-18
5.8051e-18
5.32326e-18
4.88247e-18
5.11263e-18
5.05307e-18
5.41184e-18
5.19283e-18
5.53028e-18
5.50674e-18
5.16058e-18
4.54288e-18
5.38719e-18
5.39648e-18
5.20234e-18
5.14295e-18
4.84982e-18
5.3808e-18
4.8801e-18
4.42063e-18
5.36151e-18
4.86857e-18
5.48313e-18
5.0215e-18
4.80311e-18
5.72819e-18
4.74888e-18
5.12612e-18
4.62189e-18
4.83066e-18
5.03819e-18
5.52577e-18
5.52914e-18
5.64204e-18
5.13939e-18
5.19735e-18
5.26526e-18
5.17869e-18
5.06932e-18
4.87621e-18
5.21338e-18
5.03508e-18
5.31644e-18
5.06351e-18
5.45697e-18
5.56135e-18
5.16574e-18
5.75198e-18
5.62002e-18
5.23469e-18
5.35275e-18
5.58929e-18
5.31733e-18
5.25747e-18
4.82061e-18
4.69696e-18
5.25468e-18
5.13238e-18
5.36425e-18
6.17697e-18
5.477e-18
5.09981e-18
5.20827e-18
5.64167e-18
4.77825e-18
5.08078e-18
4.72159e-18
5.08891e-18
5.28084e-18
5.4984e-18
5.03991e-18
5.82736e-18
4.89543e-18
4.47725e-18
4.99289e-18
5.44789e-18
5.17841e-18
5.78239e-18
5.44816e-18
5.63333e-18
4.948e-18
5.57815e-18
5.66363e-18
5.28094e-18
5.27728e-18
5.07243e-18
4.95344e-18
5.27886e-18
5.15777e-18
5.64353e-18
5.32455e-18
5.18862e-18
4.99798e-18
4.769e-18
5.18927e-18
5.27766e-18
5.63978e-18
5.35815e-18
5.3915e-18
4.66528e-18
5.13556e-18
5.30696e-18
5.2286e-18
5.11994e-18
5.10275e-18
5.17082e-18
5.74538e-18
5.15896e-18
5.3196e-18
4.9977e-18
4.66198e-18
4.93476e-18
5.37791e-18
5.32271e-18
4.88545e-18
4.92653e-18
5.31331e-18
4.90671e-18
5.23554e-18
5.5458e-18
5.61321e-18
4.84105e-18
5.32686e-18
5.46301e-18
5.44361e-18
5.70049e-18
5.43616e-18
4.70357e-18
5.02822e-18
5.68732e-18
5.84194e-18
9.25383e-18
9.99878e-18
1.0169e-17
9.13253e-18
9.08933e-18
9.04305e-18
1.00417e-17
9.50154e-18
1.0309e-17
9.23646e-18
9.3843e-18
9.72026e-18
1.05423e-17
9.26711e-18
9.77798e-18
9.21378e-18
9.86481e-18
9.80312e-18
9.71611e-18
9.16574e-18
1.01606e-17
9.45507e-18
9.19972e-18
1.01559e-17
1.01916e-17
1.01667e-17
9.862e-18
9.86443e-18
1.04056e-17
1.08328e-17
9.9422e-18
8.69491e-18
9.96915e-18
9.97396e-18
9.94446e-18
9.26982e-18
1.10373e-17
1.01892e-17
9.52502e-18
9.34486e-18
1.01319e-17
8.4727e-18
8.88793e-18
9.87335e-18
9.75297e-18
1.0114e-17
9.85124e-18
1.04264e-17
9.95802e-18
9.90642e-18
9.17561e-18
9.70821e-18
9.4469e-18
9.02697e-18
9.04006e-18
1.04308e-17
9.35697e-18
1.04534e-17
9.59873e-18
9.62729e-18
9.65651e-18
1.00361e-17
8.78425e-18
1.06039e-17
9.43693e-18
9.45227e-18
1.00348e-17
9.84973e-18
8.82238e-18
1.00093e-17
1.02016e-17
9.68757e-18
9.32954e-18
9.66501e-18
9.06603e-18
9.322e-18
9.15234e-18
9.49132e-18
1.01505e-17
1.02888e-17
8.75667e-18
9.63405e-18
9.69227e-18
9.87618e-18
8.87222e-18
9.79174e-18
9.79681e-18
1.04251e-17
1.02808e-17
9.342e-18
1.03491e-17
9.63326e-18
9.72753e-18
9.52793e-18
9.05014e-18
8.98979e-18
1.03445e-17
9.92827e-18
9.0701e-18
9.88533e-18
9.66742e-18
9.30252e-18
1.00023e-17
9.8439e-18
8.93117e-18
8.74102e-18
9.92394e-18
9.42112e-18
1.00414e-17
9.66793e-18
9.82539e-18
1.03272e-17
9.95132e-18
9.6072e-18
9.74166e-18
1.07636e-17
1.00085e-17
9.33791e-18
9.63683e-18
9.03936e-18
1.02908e-17
9.74622e-18
1.06555e-17
9.87035e-18
8.63632e-18
9.56373e-18
9.79082e-18
1.00583e-17
9.70081e-18
9.56951e-18
1.02809e-17
9.91161e-18
8.34788e-18
9.57933e-18
9.98837e-18
9.89148e-18
9.97555e-18
9.14889e-18
1.03106e-17
1.01378e-17
8.62572e-18
9.33952e-18
1.02739e-17
1.00215e-17
9.82199e-18
1.06844e-17
9.24559e-18
9.49421e-18
9.58379e-18
9.35014e-18
9.33679e-18
9.72467e-18
9.61655e-18
9.91557e-18
8.66198e-18
8.97218e-18
9.66501e-18
9.40826e-18
9.90594e-18
1.01444e-17
9.38704e-18
9.1747e-18
9.67939e-18
9.1776e-18
1.01033e-17
1.08949e-17
9.92001e-18
9.73098e-18
9.54188e-18
1.01424e-17
9.44759e-18
1.04006e-17
9.9861e-18
9.30861e-18
9.16241e-18
9.28515e-18
1.07587e-17
9.74906e-18
1.0233e-17
1.11804e-17
1.02142e-17
9.47235e-18
8.62578e-18
9.57431e-18
8.91598e-18
9.15512e-18
9.97802e-18
9.35357e-18
1.00339e-17
9.67885e-18
9.23171e-18
1.05128e-17
9.31903e-18
9.88703e-18
1.0503e-17
9.58438e-18
9.16344e-18
9.72854e-18
9.66475e-18
9.73122e-18
1.0724e-17
1.01431e-17
9.78065e-18
1.00027e-17
9.67047e-18
8.68467e-18
9.92033e-18
9.32745e-18
9.24959e-18
9.2504e-18
1.00987e-17
9.48566e-18
9.56761e-18
9.89376e-18
9.3519e-18
8.84455e-18
9.19421e-18
8.94788e-18
9.08685e-18
9.69729e-18
9.28251e-18
1.05499e-17
9.75843e-18
9.21353e-18
9.44463e-18
9.62161e-18
8.96177e-18
8.99144e-18
1.0462e-17
9.54674e-18
8.16177e-18
9.2161e-18
9.51323e-18
9.90761e-18
9.53849e-18
8.52383e-18
9.92432e-18
9.93762e-18
9.48456e-18
1.05303e-17
1.04671e-17
9.62359e-18
8.66119e-18
9.57599e-18
9.89835e-18
9.01661e-18
9.95556e-18
9.78398e-18
8.82727e-18
9.57503e-18
9.70773e-18
9.55656e-18
1.02045e-17
1.04869e-17
1.01679e-17
9.12914e-18
1.84416e-17
1.98544e-17
1.66545e-17
1.86316e-17
1.89689e-17
1.90515e-17
1.82789e-17
1.83464e-17
1.85206e-17
1.71405e-17
1.66553e-17
1.84572e-17
1.87328e-17
1.76908e-17
1.92337e-17
1.85193e-17
1.88992e-17
2.03926e-17
1.83568e-17
1.96096e-17
1.94392e-17
1.78971e-17
1.73917e-17
1.64106e-17
1.83526e-17
1.93602e-17
1.817e-17
1.86332e-17
1.82811e-17
2.0115e-17
1.63292e-17
1.71169e-17
1.80641e-17
1.84181e-17
1.7018e-17
1.84105e-17
2.03343e-17
1.90422e-17
1.75442e-17
1.61775e-17
1.88285e-17
1.8638e-17
1.80704e-17
1.82331e-17
1.71319e-17
2.02121e-17
1.85808e-17
1.77581e-17
1.77645e-17
2.03623e-17
1.8516e-17
1.77131e-17
1.81871e-17
1.81045e-17
1.86794e-17
1.7998e-17
1.7414e-17
1.82712e-17
1.92608e-17
1.69002e-17
1.8458e-17
1.83379e-17
1.72515e-17
1.9149e-17
1.85346e-17
1.76915e-17
1.88597e-17
1.90689e-17
1.7233e-17
1.89858e-17
1.61047e-17
1.83216e-17
1.84899e-17
1.72504e-17
1.66733e-17
1.78306e-17
1.75577e-17
1.86315e-17
1.89943e-17
1.81378e-17
1.65088e-17
1.67957e-17
1.84466e-17
1.9709e-17
1.76978e-17
1.90165e-17
1.74165e-17
1.90118e-17
2.00593e-17
1.83877e-17
1.82332e-17
1.7786e-17
1.78209e-17
1.8891e-17
1.83662e-17
1.91009e-17
1.95654e-17
1.9492e-17
1.78568e-17
1.86982e-17
1.79927e-17
1.73047e-17
1.85145e-17
1.80304e-17
1.88495e-17
1.86496e-17
1.68511e-17
1.7297e-17
1.81735e-17
1.75748e-17
1.67037e-17
1.92773e-17
1.85953e-17
1.77542e-17
1.89341e-17
1.8637e-17
1.78497e-17
1.9212e-17
1.91687e-17
1.87422e-17
2.13467e-17
1.95687e-17
1.7535e-17
1.96004e-17
1.80366e-17
1.82437e-17
1.82235e-17
1.77207e-17
1.7544e-17
1.7468e-17
1.83558e-17
1.98667e-17
1.56816e-17
1.82562e-17
1.75815e-17
1.80287e-17
1.85912e-17
1.76442e-17
1.63338e-17
1.80741e-17
1.74763e-17
1.74739e-17
1.93213e-17
1.88104e-17
1.93751e-17
2.00068e-17
1.83244e-17
1.86877e-17
1.88316e-17
1.78923e-17
1.84405e-17
1.72864e-17
1.74963e-17
1.54123e-17
1.66674e-17
1.69727e-17
1.85991e-17
1.99944e-17
1.84483e-17
1.80175e-17
1.59051e-17
2.09859e-17
1.93533e-17
1.83644e-17
1.8817e-17
1.61509e-17
1.95073e-17
1.75387e-17
1.81914e-17
1.92765e-17
1.93256e-17
1.85019e-17
1.9649e-17
1.83008e-17
1.67934e-17
1.78209e-17
1.77512e-17
1.57929e-17
1.54075e-17
1.75881e-17
2.02252e-17
2.05006e-17
1.88254e-17
1.78977e-17
1.71813e-17
1.643e-17
1.89954e-17
1.86111e-17
1.79222e-17
1.86962e-17
1.76812e-17
1.87027e-17
1.8018e-17
1.76636e-17
1.69214e-17
1.7936e-17
1.86513e-17
1.68246e-17
1.69222e-17
1.78038e-17
1.75107e-17
1.86374e-17
1.79148e-17
1.95229e-17
1.78971e-17
1.63484e-17
1.99861e-17
1.81099e-17
1.75194e-17
1.7741e-17
1.85005e-17
1.83807e-17
1.80049e-17
1.86574e-17
2.02825e-17
1.80002e-17
1.78707e-17
1.87862e-17
1.82901e-17
1.67933e-17
1.64733e-17
1.65886e-17
1.82042e-17
1.94486e-17
1.85041e-17
1.77359e-17
1.88489e-17
1.82848e-17
1.79947e-17
1.81575e-17
1.84199e-17
1.6744e-17
1.74017e-17
1.80685e-17
1.68218e-17
1.80953e-17
1.88815e-17
1.89606e-17
1.70495e-17
2.06646e-17
1.81018e-17
1.96856e-17
1.78563e-17
1.82578e-17
1.85276e-17
1.75913e-17
1.82468e-17
1.86994e-17
1.93512e-17
1.89848e-17
1.79101e-17
1.78368e-17
1.72049e-17
1.86853e-17
1.77227e-17
1.80003e-17
3.25085e-17
3.31924e-17
3.22813e-17
3.4843e-17
3.63191e-17
3.75339e-17
3.20356e-17
3.39807e-17
3.60019e-17
3.26791e-17
3.23232e-17
3.25019e-17
3.0882e-17
3.11221e-17
3.5255e-17
3.29283e-17
3.10561e-17
3.39395e-17
2.905e-17
3.44999e-17
3.10641e-17
3.43835e-17
3.51929e-17
3.18327e-17
3.37885e-17
3.41147e-17
3.3167e-17
3.24227e-17
3.15728e-17
3.18317e-17
3.60173e-17
3.85524e-17
3.11757e-17
3.05068e-17
3.21143e-17
3.36259e-17
3.2848e-17
3.4504e-17
3.40953e-17
3.31343e-17
3.26524e-17
3.60475e-17
3.7238e-17
3.24574e-17
3.26647e-17
3.26607e-17
3.2462e-17
3.33144e-17
3.37202e-17
3.49006e-17
3.38318e-17
3.34311e-17
3.24214e-17
3.48392e-17
3.12417e-17
3.35121e-17
3.27162e-17
3.15601e-17
3.27696e-17
3.19135e-17
3.5355e-17
3.54826e-17
2.95467e-17
3.50759e-17
3.58715e-17
3.40607e-17
3.00989e-17
3.19897e-17
3.33115e-17
3.27691e-17
3.12224e-17
3.49273e-17
3.75945e-17
3.44468e-17
3.27935e-17
3.46507e-17
3.42914e-17
3.39344e-17
3.49797e-17
3.41486e-17
3.29292e-17
3.54203e-17
3.33461e-17
3.87278e-17
3.66656e-17
3.32696e-17
3.29505e-17
3.22486e-17
3.23412e-17
3.17902e-17
3.35303e-17
3.4287e-17
3.29074e-17
3.25091e-17
3.3729e-17
3.37316e-17
3.08086e-17
3.36442e-17
3.23438e-17
3.52402e-17
4.01159e-17
3.09236e-17
3.55723e-17
3.25043e-17
3.40242e-17
3.42309e-17
3.5951e-17
3.29088e-17
3.56549e-17
3.33484e-17
3.5633e-17
3.48613e-17
3.67311e-17
3.09843e-17
3.55603e-17
3.09272e-17
2.99519e-17
3.66483e-17
3.40546e-17
3.49046e-17
3.31801e-17
3.30918e-17
3.34794e-17
3.30014e-17
3.42248e-17
3.28895e-17
3.53104e-17
3.65203e-17
3.64887e-17
3.54454e-17
3.22917e-17
3.23585e-17
3.33053e-17
3.31815e-17
3.67443e-17
3.39823e-17
3.41328e-17
3.42017e-17
3.40321e-17
3.60749e-17
3.41397e-17
3.05147e-17
3.50369e-17
3.56287e-17
3.27198e-17
3.3191e-17
3.22101e-17
3.26896e-17
2.96341e-17
3.43285e-17
3.59319e-17
3.63838e-17
3.55427e-17
3.13917e-17
3.35538e-17
3.3911e-17
3.64239e-17
3.2998e-17
3.17008e-17
3.39218e-17
3.34175e-17
3.74929e-17
3.24928e-17
3.37643e-17
3.35248e-17
3.22407e-17
3.55765e-17
3.02021e-17
3.22319e-17
3.34444e-17
3.6109e-17
3.39377e-17
3.63104e-17
3.38862e-17
3.56591e-17
3.6129e-17
3.33688e-17
3.11186e-17
3.12002e-17
3.39434e-17
3.5042e-17
3.5586e-17
3.40131e-17
3.50506e-17
3.47573e-17
3.36819e-17
3.48339e-17
3.35436e-17
3.75837e-17
3.41056e-17
3.28622e-17
3.49234e-17
3.45928e-17
3.16714e-17
3.61198e-17
3.50846e-17
3.41908e-17
3.2568e-17
3.51151e-17
3.63632e-17
3.31344e-17
3.46459e-17
3.18033e-17
4.04649e-17
3.54372e-17
3.17731e-17
3.58123e-17
3.65673e-17
3.22933e-17
3.28527e-17
3.36394e-17
3.36293e-17
3.2887e-17
3.13154e-17
3.29443e-17
3.21941e-17
3.30021e-17
3.1567e-17
3.58823e-17
3.53428e-17
3.35568e-17
3.19154e-17
3.45809e-17
3.39969e-17
3.43253e-17
3.34404e-17
3.76392e-17
3.43068e-17
3.56493e-17
3.46325e-17
3.32889e-17
3.46697e-17
3.69085e-17
3.3119e-17
3.45561e-17
3.52382e-17
3.25942e-17
3.37351e-17
3.24723e-17
3.39667e-17
2.92768e-17
3.30694e-17
3.48516e-17
3.25645e-17
3.28221e-17
3.64073e-17
3.28425e-17
3.17545e-17
3.38724e-17
3.21108e-17
3.2193e-17
3.24621e-17
3.33169e-17
2.89531e-17
3.38249e-17
3.66655e-17
6.62098e-17
6.13077e-17
6.63251e-17
5.97893e-17
6.76065e-17
6.49836e-17
6.10295e-17
6.08029e-17
5.55626e-17
6.13685e-17
5.97142e-17
6.53415e-17
6.28783e-17
5.44907e-17
6.38225e-17
6.7488e-17
6.67318e-17
6.56334e-17
5.64215e-17
6.34366e-17
5.80421e-17
6.57126e-17
5.88269e-17
6.88043e-17
6.66884e-17
6.76656e-17
6.63288e-17
6.53891e-17
5.69916e-17
6.47084e-17
6.4561e-17
6.66022e-17
5.76507e-17
5.71291e-17
6.53778e-17
6.93102e-17
6.72653e-17
6.86791e-17
5.677e-17
6.61424e-17
6.06296e-17
7.0903e-17
7.34272e-17
5.75656e-17
5.78806e-17
6.51551e-17
6.46405e-17
6.19969e-17
6.9703e-17
6.96655e-17
5.81042e-17
6.58232e-17
7.01823e-17
7.16507e-17
6.40972e-17
6.34149e-17
7.00102e-17
6.51106e-17
6.24233e-17
6.52393e-17
5.84034e-17
5.69496e-17
6.77428e-17
6.62373e-17
6.1632e-17
6.16567e-17
6.70431e-17
6.63134e-17
6.60985e-17
6.40649e-17
7.2727e-17
6.36986e-17
6.02689e-17
5.80087e-17
6.26022e-17
6.8547e-17
6.63623e-17
5.81986e-17
5.94404e-17
6.02856e-17
5.92688e-17
5.81883e-17
6.16516e-17
6.8453e-17
5.69482e-17
6.13899e-17
6.34465e-17
6.05962e-17
5.76595e-17
6.26337e-17
6.04931e-17
5.98553e-17
6.21148e-17
5.82284e-17
5.94929e-17
6.23181e-17
6.55691e-17
6.50211e-17
5.62655e-17
5.59605e-17
6.08571e-17
6.12423e-17
6.05356e-17
6.52878e-17
5.98098e-17
6.57955e-17
6.40452e-17
6.10552e-17
6.46635e-17
5.7564e-17
6.28855e-17
6.57084e-17
6.51029e-17
6.24315e-17
6.45654e-17
6.51815e-17
6.37313e-17
6.38836e-17
6.81737e-17
6.39439e-17
6.3936e-17
6.16341e-17
5.89261e-17
5.59883e-17
6.40969e-17
6.14171e-17
6.51294e-17
6.09178e-17
6.83542e-17
6.43788e-17
6.59572e-17
6.13939e-17
6.42117e-17
6.48115e-17
6.43453e-17
6.25249e-17
6.36565e-17
6.0376e-17
6.12182e-17
6.37452e-17
6.75467e-17
5.82882e-17
6.79798e-17
6.024e-17
6.30493e-17
6.25421e-17
6.08478e-17
5.97425e-17
6.1201e-17
6.50418e-17
6.45408e-17
6.48406e-17
6.70849e-17
6.5025e-17
6.2771e-17
6.80453e-17
6.09154e-17
6.02839e-17
6.23e-17
5.78771e-17
6.33396e-17
6.61215e-17
6.4965e-17
6.8335e-17
5.87232e-17
5.48373e-17
6.41721e-17
6.10049e-17
6.65715e-17
5.646e-17
6.71258e-17
6.20166e-17
6.27906e-17
6.4669e-17
6.87337e-17
6.2935e-17
6.35039e-17
7.20037e-17
6.07921e-17
5.75868e-17
6.08238e-17
6.23177e-17
6.24945e-17
6.46362e-17
6.36603e-17
6.2744e-17
6.19341e-17
6.26541e-17
6.56039e-17
6.28404e-17
6.57846e-17
5.77171e-17
6.19588e-17
6.36209e-17
6.53884e-17
6.09644e-17
6.53014e-17
5.75095e-17
6.64867e-17
6.27552e-17
6.5317e-17
6.41877e-17
6.35102e-17
6.65188e-17
6.16382e-17
6.16655e-17
6.31225e-17
7.05895e-17
6.33298e-17
6.19927e-17
5.72394e-17
6.66219e-17
6.39081e-17
5.97468e-17
6.24504e-17
6.03095e-17
6.42131e-17
6.18343e-17
5.89812e-17
6.50372e-17
6.35382e-17
6.59896e-17
6.15816e-17
5.86668e-17
6.04524e-17
5.90331e-17
6.45399e-17
6.52356e-17
6.2674e-17
6.1214e-17
6.29622e-17
6.29602e-17
6.94108e-17
5.87312e-17
6.21316e-17
6.49679e-17
5.80888e-17
6.00719e-17
6.12479e-17
5.77506e-17
5.46649e-17
6.36541e-17
6.89911e-17
6.67385e-17
5.9841e-17
6.59249e-17
6.3113e-17
6.27444e-17
6.52301e-17
6.51696e-17
6.55005e-17
7.03963e-17
6.36872e-17
5.73995e-17
6.51442e-17
6.35304e-17
1.11794e-16
1.19329e-16
1.15295e-16
1.08264e-16
1.2436e-16
1.17868e-16
1.2242e-16
1.17644e-16
1.11312e-16
1.20738e-16
1.29197e-16
1.2167e-16
1.20761e-16
1.19978e-16
1.1517e-16
1.07749e-16
1.23534e-16
1.17459e-16
1.15207e-16
1.15963e-16
1.02741e-16
1.23268e-16
1.0932e-16
1.22088e-16
1.1814e-16
1.21547e-16
1.24764e-16
1.23082e-16
1.14432e-16
1.04794e-16
1.11027e-16
1.26327e-16
1.33489e-16
1.22454e-16
1.17506e-16
1.21119e-16
1.10448e-16
1.08537e-16
1.20521e-16
1.14535e-16
1.13828e-16
1.17061e-16
1.20734e-16
1.27921e-16
1.21004e-16
1.19688e-16
1.12299e-16
1.06964e-16
1.19026e-16
1.17525e-16
1.12016e-16
1.14404e-16
1.14714e-16
1.16719e-16
1.20727e-16
1.30419e-16
1.25199e-16
1.20537e-16
1.16938e-16
1.2208e-16
1.1805e-16
1.22846e-16
1.14085e-16
1.18813e-16
1.07829e-16
1.0475e-16
1.26101e-16
1.24379e-16
1.08593e-16
1.15409e-16
1.20735e-16
1.15014e-16
1.2551e-16
1.18217e-16
1.22594e-16
1.14844e-16
1.2723e-16
1.14119e-16
1.10727e-16
1.18939e-16
1.13104e-16
1.20201e-16
1.19551e-16
1.32334e-16
1.24898e-16
1.08841e-16
1.18101e-16
1.18549e-16
1.19914e-16
1.23905e-16
1.21583e-16
1.13206e-16
1.30105e-16
1.25659e-16
1.30006e-16
1.18669e-16
1.09537e-16
1.34575e-16
1.24745e-16
1.07685e-16
1.26301e-16
1.16832e-16
1.29409e-16
1.19966e-16
1.14526e-16
1.18466e-16
1.16788e-16
1.19545e-16
1.17821e-16
1.13777e-16
1.16904e-16
1.09893e-16
1.01635e-16
1.1506e-16
1.09131e-16
1.25336e-16
1.19326e-16
1.10066e-16
1.0537e-16
9.70412e-17
1.13688e-16
1.2556e-16
1.21021e-16
1.2567e-16
1.26317e-16
1.19388e-16
1.13313e-16
1.18115e-16
1.15501e-16
1.11393e-16
1.15552e-16
1.21485e-16
1.20088e-16
1.20774e-16
1.16578e-16
1.09368e-16
1.00037e-16
1.13845e-16
1.21853e-16
1.08407e-16
1.15187e-16
1.13949e-16
1.25089e-16
1.14038e-16
1.26183e-16
1.22753e-16
1.1557e-16
1.16529e-16
1.21022e-16
1.23524e-16
1.10677e-16
1.12752e-16
1.2424e-16
1.19595e-16
1.07731e-16
1.31812e-16
1.29326e-16
1.18107e-16
1.26178e-16
1.15867e-16
1.12499e-16
1.11575e-16
1.20714e-16
1.14034e-16
1.23627e-16
1.15014e-16
1.26324e-16
1.18219e-16
1.20139e-16
1.25678e-16
1.17629e-16
1.18647e-16
1.11176e-16
1.12442e-16
1.14492e-16
1.14992e-16
1.25752e-16
1.27389e-16
1.21151e-16
1.23527e-16
1.26133e-16
1.25618e-16
1.16946e-16
1.11473e-16
1.17546e-16
1.1438e-16
1.15827e-16
1.11218e-16
1.24404e-16
1.1849e-16
1.10443e-16
1.11261e-16
1.24804e-16
1.18321e-16
1.14899e-16
1.05686e-16
1.17164e-16
1.18216e-16
1.14705e-16
1.08421e-16
1.24898e-16
1.24014e-16
1.19645e-16
1.21847e-16
1.11788e-16
1.16537e-16
1.21267e-16
1.08253e-16
1.12666e-16
1.23888e-16
1.18181e-16
1.19406e-16
1.15946e-16
1.11871e-16
1.20019e-16
1.21136e-16
1.30248e-16
1.23863e-16
1.12678e-16
1.23378e-16
1.31789e-16
1.16535e-16
1.09299e-16
1.2265e-16
1.28002e-16
1.28294e-16
1.17087e-16
1.26773e-16
1.16061e-16
1.26092e-16
1.11946e-16
1.1177e-16
1.18002e-16
1.2644e-16
1.23749e-16
1.17942e-16
1.19037e-16
1.20022e-16
1.13089e-16
1.15463e-16
1.13963e-16
1.10739e-16
1.15472e-16
1.28514e-16
1.21805e-16
1.27454e-16
1.23028e-16
1.13654e-16
1.12474e-16
1.1118e-16
1.19405e-16
1.27365e-16
1.22778e-16
1.17139e-16
1.21679e-16
1.13913e-16
2.4809e-16
2.1522e-16
2.17239e-16
2.29138e-16
2.05413e-16
2.25278e-16
2.05332e-16
2.11492e-16
2.06875e-16
2.24599e-16
2.13797e-16
2.2958e-16
2.25815e-16
2.12865e-16
2.02734e-16
2.05859e-16
2.10609e-16
2.21815e-16
2.24248e-16
1.97578e-16
2.23659e-16
2.24185e-16
2.0825e-16
2.22266e-16
2.1439e-16
2.23698e-16
2.22424e-16
2.12487e-16
2.05396e-16
1.97825e-16
2.18712e-16
2.33589e-16
2.33625e-16
2.1974e-16
2.11568e-16
2.15697e-16
2.11314e-16
2.24417e-16
2.1473e-16
2.12222e-16
2.03156e-16
2.19441e-16
2.05288e-16
2.22009e-16
2.28815e-16
2.27505e-16
2.31617e-16
2.08661e-16
2.11783e-16
2.28064e-16
2.06916e-16
2.33768e-16
2.21242e-16
2.49105e-16
2.19195e-16
2.20348e-16
2.07792e-16
2.34912e-16
2.18768e-16
2.29447e-16
2.4792e-16
2.32532e-16
2.22618e-16
2.19964e-16
2.27412e-16
2.20797e-16
2.25747e-16
2.13515e-16
2.1869e-16
2.23661e-16
2.16634e-16
2.2135e-16
2.12083e-16
2.30787e-16
2.25532e-16
2.01726e-16
2.45553e-16
2.55517e-16
2.45401e-16
2.27365e-16
2.30102e-16
2.34906e-16
2.0517e-16
2.09782e-16
2.15031e-16
2.09287e-16
2.12719e-16
2.04662e-16
2.04874e-16
2.25184e-16
2.34917e-16
2.21281e-16
2.42523e-16
2.18856e-16
2.31859e-16
2.18725e-16
2.17904e-16
2.27861e-16
2.34475e-16
2.2919e-16
2.37276e-16
2.29712e-16
2.33454e-16
2.26479e-16
2.24108e-16
2.40536e-16
2.38975e-16
2.0994e-16
2.05564e-16
2.26555e-16
2.31421e-16
2.33148e-16
2.41312e-16
2.21147e-16
2.27061e-16
2.27948e-16
2.15716e-16
2.0543e-16
2.14756e-16
1.94028e-16
2.35154e-16
2.0279e-16
2.25703e-16
2.37086e-16
2.26617e-16
2.0468e-16
2.21776e-16
2.23343e-16
2.15936e-16
2.18525e-16
2.11542e-16
2.14835e-16
2.1415e-16
2.15329e-16
2.20708e-16
2.06464e-16
2.37908e-16
2.25966e-16
2.1887e-16
2.09745e-16
2.39226e-16
2.1932e-16
2.23554e-16
2.09171e-16
2.29262e-16
2.35387e-16
2.20195e-16
2.19106e-16
2.44745e-16
2.40458e-16
2.10808e-16
2.02274e-16
2.31927e-16
2.07347e-16
2.0975e-16
2.064e-16
2.18087e-16
2.06815e-16
2.13468e-16
2.23487e-16
2.37291e-16
2.45646e-16
2.30815e-16
2.11404e-16
2.11077e-16
2.06234e-16
2.27671e-16
1.96742e-16
2.11446e-16
2.24478e-16
2.02377e-16
2.3718e-16
2.17501e-16
2.19087e-16
2.17237e-16
2.2983e-16
2.16319e-16
2.2102e-16
2.32497e-16
2.29687e-16
2.45327e-16
2.33141e-16
1.94225e-16
2.08694e-16
2.47794e-16
2.26943e-16
2.31762e-16
2.21629e-16
2.30508e-16
2.41202e-16
2.09214e-16
2.25767e-16
2.33656e-16
2.03376e-16
2.15398e-16
2.34254e-16
2.12846e-16
2.26028e-16
2.22188e-16
2.10766e-16
2.04788e-16
2.19282e-16
2.01207e-16
2.17746e-16
2.0808e-16
2.12967e-16
2.37703e-16
2.13972e-16
2.22961e-16
2.32454e-16
2.21237e-16
2.33077e-16
2.11378e-16
2.13523e-16
2.26358e-16
2.07951e-16
2.1405e-16
2.14234e-16
2.17391e-16
2.4809e-16
2.16857e-16
2.30965e-16
2.42467e-16
2.34604e-16
2.31081e-16
2.18183e-16
2.12365e-16
2.17944e-16
2.14167e-16
2.23102e-16
2.48597e-16
2.47171e-16
2.2192e-16
2.19772e-16
2.24875e-16
2.34954e-16
2.14373e-16
2.37977e-16
2.31846e-16
2.22331e-16
2.20925e-16
2.28887e-16
2.33173e-16
2.28693e-16
2.24407e-16
2.15114e-16
2.15592e-16
2.26629e-16
2.3095e-16
2.1988e-16
2.36515e-16
2.13872e-16
1.95276e-16
1.95563e-16
2.17469e-16
2.09075e-16
4.36858e-16
4.16874e-16
4.39256e-16
4.22897e-16
4.23144e-16
4.4306e-16
3.98038e-16
4.30618e-16
4.27991e-16
3.89848e-16
4.42094e-16
4.21659e-16
3.6084e-16
4.32163e-16
4.1295e-16
3.86724e-16
4.85236e-16
3.90791e-16
3.68812e-16
4.24779e-16
4.01632e-16
3.96829e-16
3.99049e-16
4.54675e-16
4.30811e-16
4.5832e-16
4.22406e-16
3.87514e-16
4.09871e-16
4.47839e-16
4.26821e-16
4.29207e-16
3.66094e-16
4.05419e-16
4.27186e-16
4.35835e-16
4.12192e-16
4.28668e-16
4.36429e-16
4.40255e-16
4.53917e-16
3.90723e-16
4.06467e-16
4.16385e-16
4.45173e-16
4.20725e-16
4.13613e-16
4.12668e-16
4.11319e-16
4.37314e-16
4.22297e-16
4.46324e-16
4.71139e-16
4.10145e-16
4.19536e-16
3.75906e-16
3.93659e-16
4.12844e-16
4.00532e-16
4.14986e-16
4.4643e-16
3.94521e-16
3.66692e-16
4.08293e-16
3.96822e-16
3.78549e-16
4.02364e-16
4.12129e-16
4.13314e-16
4.47045e-16
4.01169e-16
4.10186e-16
3.90691e-16
4.22352e-16
4.11598e-16
3.92232e-16
4.01524e-16
4.30077e-16
4.27129e-16
4.11192e-16
4.22609e-16
4.04156e-16
4.01526e-16
4.22294e-16
4.04942e-16
4.12565e-16
4.33425e-16
4.30277e-16
3.79424e-16
3.74962e-16
3.69113e-16
4.2484e-16
3.88695e-16
3.93911e-16
4.29473e-16
3.87351e-16
4.25224e-16
4.21414e-16
3.9437e-16
3.70432e-16
3.86615e-16
3.9597e-16
4.27628e-16
3.67655e-16
4.22586e-16
4.6457e-16
4.06553e-16
3.97981e-16
4.18931e-16
4.19386e-16
4.05622e-16
3.82158e-16
4.34151e-16
4.61068e-16
3.88526e-16
3.97541e-16
4.11005e-16
3.81302e-16
4.47069e-16
4.40373e-16
4.27511e-16
3.92966e-16
3.84997e-16
4.18047e-16
3.94308e-16
3.7837e-16
3.91567e-16
4.0738e-16
3.91065e-16
4.2136e-16
4.2773e-16
4.27956e-16
3.69882e-16
3.85808e-16
4.2306e-16
4.00186e-16
4.11298e-16
4.36454e-16
3.97475e-16
3.88319e-16
3.9267e-16
3.97161e-16
4.15989e-16
3.90376e-16
3.70372e-16
4.35569e-16
4.27e-16
3.93381e-16
4.36651e-16
4.09089e-16
3.97008e-16
4.24081e-16
4.15609e-16
4.11632e-16
4.25975e-16
4.65879e-16
4.3988e-16
3.78124e-16
4.03537e-16
4.08103e-16
4.27589e-16
4.06391e-16
4.12334e-16
4.13653e-16
4.28114e-16
3.80358e-16
4.2549e-16
4.08755e-16
4.55577e-16
4.07946e-16
4.4219e-16
4.21456e-16
4.2002e-16
3.71401e-16
3.74826e-16
4.26802e-16
4.07033e-16
4.13447e-16
4.30428e-16
3.84604e-16
4.0411e-16
3.98142e-16
4.03626e-16
4.33168e-16
4.35922e-16
4.18911e-16
4.03541e-16
3.7548e-16
4.04504e-16
4.45454e-16
3.90379e-16
4.20859e-16
4.35232e-16
4.08965e-16
4.32682e-16
4.21146e-16
4.06144e-16
3.95497e-16
4.24984e-16
4.1657e-16
3.95022e-16