# vtk DataFile Version 1.0
Ion Density - Current Sheet
ASCII
DATASET STRUCTURED_POINTS
DIMENSIONS 256 128 1
ORIGIN 0 0 0
SPACING 0.15625 0.15625 1
POINT_DATA 32768
SCALARS rhoi float
LOOKUP_TABLE default
1.94486e-18
1.91239e-18
1.91182e-18
1.9094e-18
2.10341e-18
2.00118e-18
1.88618e-18
1.84279e-18
1.87418e-18
1.84249e-18
2.0122e-18
1.99029e-18
1.87766e-18
1.89643e-18
1.90345e-18
2.06711e-18
1.9149e-18
1.96256e-18
1.96713e-18
1.94579e-18
2.0298e-18
2.00198e-18
1.99296e-18
1.97021e-18
2.02403e-18
1.86526e-18
1.91633e-18
1.93105e-18
1.96939e-18
1.97844e-18
1.92426e-18
2.05083e-18
1.9191e-18
2.03736e-18
1.91935e-18
1.82633e-18
1.99111e-18
1.94542e-18
1.99005e-18
1.93176e-18
1.89019e-18
1.89453e-18
2.00142e-18
1.83764e-18
1.8837e-18
1.88175e-18
1.92563e-18
1.89628e-18
1.92432e-18
1.98626e-18
1.91622e-18
1.99284e-18
1.82068e-18
1.85902e-18
1.92817e-18
1.9751e-18
2.02981e-18
1.95393e-18
1.88474e-18
1.92172e-18
1.94412e-18
2.04305e-18
2.02513e-18
1.97685e-18
1.85638e-18
1.88014e-18
1.88496e-18
1.847e-18
1.85655e-18
1.86211e-18
1.96881e-18
1.97273e-18
1.89193e-18
1.90641e-18
1.92383e-18
1.84197e-18
1.90843e-18
2.01635e-18
1.84964e-18
1.96693e-18
1.79236e-18
1.92052e-18
1.853e-18
1.86281e-18
1.97953e-18
1.94121e-18
1.81838e-18
2.00992e-18
1.94184e-18
1.98489e-18
1.80769e-18
1.81993e-18
1.85404e-18
2.03932e-18
2.05392e-18
2.10207e-18
1.97297e-18
1.90534e-18
1.85172e-18
1.97467e-18
1.76916e-18
1.90687e-18
1.80245e-18
1.88419e-18
1.94229e-18
1.85753e-18
1.84372e-18
1.8521e-18
1.92713e-18
1.77756e-18
1.87582e-18
1.89091e-18
2.0314e-18
1.89088e-18
1.98972e-18
1.94408e-18
1.84405e-18
1.84128e-18
1.83999e-18
1.89511e-18
1.91404e-18
1.98379e-18
1.82229e-18
1.86571e-18
2.02898e-18
1.85536e-18
1.99325e-18
1.90961e-18
1.92353e-18
1.84387e-18
1.89419e-18
1.77265e-18
2.15451e-18
1.87307e-18
1.8208e-18
2.00409e-18
1.91723e-18
1.88118e-18
2.01234e-18
2.07601e-18
1.95836e-18
1.84935e-18
1.88019e-18
1.84334e-18
2.04922e-18
1.83805e-18
1.87847e-18
1.98981e-18
1.86964e-18
1.98254e-18
1.9529e-18
1.85747e-18
1.87132e-18
1.78639e-18
1.97072e-18
2.01635e-18
2.0206e-18
1.88459e-18
1.86831e-18
2.05185e-18
1.92836e-18
1.92728e-18
1.87544e-18
1.78737e-18
1.99594e-18
2.01955e-18
1.8442e-18
1.98577e-18
1.99548e-18
1.93925e-18
1.87007e-18
1.92395e-18
1.9596e-18
1.95873e-18
1.95218e-18
1.91815e-18
1.87414e-18
1.81879e-18
1.89424e-18
1.97264e-18
1.88155e-18
1.94984e-18
2.09025e-18
1.88774e-18
1.83099e-18
1.83206e-18
1.98887e-18
1.92443e-18
2.06648e-18
1.81932e-18
1.98602e-18
1.942e-18
1.78278e-18
2.03399e-18
1.92603e-18
1.91887e-18
1.8287e-18
1.84263e-18
1.99396e-18
2.01171e-18
1.88956e-18
2.00238e-18
1.87329e-18
1.99468e-18
1.83847e-18
2.0018e-18
1.88853e-18
1.78399e-18
1.89381e-18
1.89027e-18
1.93546e-18
1.96374e-18
1.95893e-18
1.83306e-18
1.88668e-18
1.87342e-18
1.92591e-18
2.18239e-18
1.92525e-18
1.95536e-18
1.96127e-18
1.8998e-18
1.80859e-18
1.83207e-18
1.86116e-18
1.9612e-18
1.92615e-18
1.88081e-18
1.79332e-18
1.96895e-18
1.87755e-18
1.87986e-18
1.96149e-18
2.0378e-18
1.79859e-18
1.99579e-18
1.88658e-18
1.94298e-18
1.87976e-18
1.92824e-18
1.84957e-18
1.9232e-18
1.87226e-18
2.0296e-18
2.01446e-18
2.01474e-18
1.96267e-18
1.95365e-18
2.18215e-18
1.79989e-18
2.00167e-18
1.84853e-18
1.92615e-18
1.92832e-18
1.87001e-18
1.88067e-18
2.60697e-18
2.8092e-18
2.71473e-18
2.61806e-18
2.62473e-18
2.89103e-18
2.84251e-18
2.7832e-18
2.95054e-18
2.85792e-18
2.92238e-18
2.86996e-18
2.89052e-18
2.67121e-18
2.655e-18
2.72516e-18
2.78429e-18
2.88606e-18
2.85495e-18
2.76449e-18
2.76038e-18
2.77848e-18
2.51376e-18
2.89265e-18
2.67012e-18
2.94497e-18
2.78115e-18
2.78473e-18
2.75832e-18
2.83602e-18
2.8672e-18
2.6262e-18
2.81537e-18
2.74392e-18
2.91362e-18
2.66785e-18
2.75207e-18
2.80013e-18
2.91243e-18
2.73291e-18
2.79645e-18
2.90353e-18
2.83108e-18
2.98583e-18
2.80493e-18
2.74465e-18
2.85392e-18
2.8511e-18
2.66841e-18
2.73429e-18
2.76001e-18
2.8818e-18
2.68063e-18
2.82677e-18
2.63283e-18
2.80728e-18
2.68234e-18
2.84603e-18
2.8397e-18
2.7471e-18
2.71831e-18
2.82109e-18
2.82354e-18
2.77982e-18
2.83659e-18
2.80801e-18
2.82317e-18
2.66534e-18
2.66321e-18
2.7525e-18
2.88995e-18
2.83784e-18
2.65889e-18
2.81249e-18
2.80587e-18
2.76284e-18
2.74467e-18
2.68472e-18
2.58771e-18
2.81903e-18
3.02249e-18
2.87042e-18
2.85399e-18
2.83479e-18
2.67366e-18
2.9031e-18
2.82895e-18
2.81722e-18
2.6804e-18
2.64369e-18
2.7902e-18
2.75546e-18
2.65866e-18
2.69202e-18
2.63299e-18
2.7457e-18
2.73766e-18
2.79219e-18
2.74967e-18
2.89431e-18
2.86638e-18
2.80728e-18
2.84907e-18
2.66677e-18
2.84816e-18
2.76019e-18
2.76956e-18
2.82765e-18
2.87163e-18
2.85056e-18
2.89827e-18
2.63986e-18
2.92994e-18
2.71943e-18
2.66614e-18
2.78531e-18
2.76114e-18
2.77352e-18
2.83113e-18
2.89207e-18
2.70233e-18
2.74096e-18
2.89602e-18
2.69119e-18
2.77446e-18
2.9631e-18
2.98709e-18
2.71556e-18
2.69509e-18
2.85117e-18
2.78365e-18
2.72117e-18
2.81987e-18
2.75288e-18
2.66226e-18
2.9304e-18
2.84861e-18
2.78683e-18
2.71175e-18
2.76388e-18
2.65842e-18
2.74319e-18
2.79089e-18
2.82677e-18
2.93575e-18
2.78562e-18
2.53336e-18
2.77783e-18
2.7888e-18
2.6989e-18
2.71207e-18
2.74267e-18
2.95649e-18
2.89108e-18
2.88165e-18
2.87563e-18
2.78387e-18
2.77665e-18
2.74307e-18
2.72523e-18
2.75156e-18
2.84205e-18
2.7837e-18
2.69096e-18
2.88032e-18
2.82758e-18
2.71949e-18
2.83617e-18
2.68915e-18
2.62302e-18
2.85069e-18
2.67754e-18
2.82265e-18
2.73217e-18
2.78766e-18
2.88347e-18
2.76105e-18
2.792e-18
2.75131e-18
2.7977e-18
2.81003e-18
2.85506e-18
2.71077e-18
2.87657e-18
2.74581e-18
2.72726e-18
2.82343e-18
2.66761e-18
2.78682e-18
2.89429e-18
2.94022e-18
2.74488e-18
2.75622e-18
2.79176e-18
2.71982e-18
2.96721e-18
2.77159e-18
2.8886e-18
2.7793e-18
2.91407e-18
2.73756e-18
2.92953e-18
2.77541e-18
2.80712e-18
2.70571e-18
2.86446e-18
2.80958e-18
2.816e-18
2.864e-18
2.79776e-18
2.70076e-18
2.9431e-18
2.66031e-18
2.72087e-18
2.80979e-18
2.78225e-18
2.82406e-18
2.73226e-18
2.74357e-18
2.84378e-18
2.66822e-18
2.67899e-18
2.74396e-18
2.77697e-18
2.63181e-18
2.71182e-18
2.75944e-18
2.78587e-18
2.79446e-18
2.87446e-18
2.58957e-18
2.74027e-18
2.68709e-18
2.86941e-18
2.782e-18
2.67033e-18
2.67707e-18
2.88257e-18
2.86658e-18
2.86209e-18
2.78658e-18
2.8049e-18
2.8224e-18
2.71723e-18
2.53808e-18
2.82804e-18
2.67692e-18
2.65434e-18
2.89322e-18
2.81354e-18
2.81669e-18
2.85482e-18
2.73739e-18
2.80372e-18
2.71336e-18
2.6533e-18
5.38747e-18
4.88681e-18
5.28073e-18
5.14493e-18
5.25082e-18
5.19847e-18
4.95685e-18
5.22754e-18
5.08584e-18
4.96837e-18
4.92667e-18
5.3421e-18
5.39661e-18
5.01178e-18
5.0338e-18
5.16763e-18
5.16132e-18
4.98471e-18
5.21676e-18
5.05294e-18
5.07708e-18
5.352e-18
5.14297e-18
5.29454e-18
5.20273e-18
5.04759e-18
5.20026e-18
5.07456e-18
5.23903e-18
5.04605e-18
5.05643e-18
5.08163e-18
5.20805e-18
5.00083e-18
5.16605e-18
5.2741e-18
5.26048e-18
5.15521e-18
5.23938e-18
5.04016e-18
5.15458e-18
5.16568e-18
5.22862e-18
5.10451e-18
5.00184e-18
5.23248e-18
5.39452e-18
5.20471e-18
5.20943e-18
5.14382e-18
4.98921e-18
5.11621e-18
5.21409e-18
5.142e-18
5.0385e-18
5.11474e-18
4.97203e-18
5.42346e-18
5.20998e-18
5.0943e-18
5.1931e-18
5.23838e-18
5.2674e-18
5.13091e-18
4.87829e-18
5.44009e-18
5.11216e-18
5.43876e-18
5.41006e-18
5.28324e-18
5.24941e-18
5.29604e-18
5.23038e-18
5.44986e-18
5.34419e-18
5.18396e-18
5.03885e-18
5.24948e-18
5.3038e-18
5.32005e-18
5.12527e-18
5.10941e-18
5.17722e-18
5.3398e-18
5.12434e-18
5.42051e-18
5.32678e-18
5.22003e-18
5.12467e-18
5.18725e-18
5.49016e-18
5.3962e-18
5.14361e-18
5.12135e-18
5.2837e-18
5.45214e-18
5.37739e-18
5.0163e-18
5.2766e-18
5.04042e-18
4.99492e-18
5.12203e-18
5.2458e-18
5.39797e-18
5.31503e-18
5.20393e-18
5.32844e-18
5.10808e-18
5.26529e-18
5.30415e-18
5.21261e-18
5.32751e-18
5.10217e-18
5.3075e-18
5.24055e-18
5.24967e-18
5.42629e-18
5.24326e-18
4.95775e-18
5.24607e-18
5.33933e-18
5.13482e-18
5.06013e-18
5.11839e-18
5.01599e-18
5.1341e-18
5.40322e-18
5.04245e-18
5.03663e-18
5.03631e-18
5.07314e-18
5.21922e-18
5.21849e-18
5.26804e-18
5.45546e-18
4.97884e-18
4.89101e-18
5.34918e-18
5.38603e-18
5.18071e-18
5.26443e-18
5.01992e-18
5.34967e-18
4.96148e-18
4.90311e-18
5.11107e-18
5.28208e-18
5.50137e-18
5.00505e-18
5.06071e-18
5.48317e-18
5.20512e-18
4.90359e-18
5.10851e-18
4.90129e-18
5.2146e-18
5.40882e-18
5.36633e-18
5.37514e-18
5.56014e-18
5.18786e-18
5.29487e-18
5.1513e-18
5.2361e-18
5.04836e-18
5.10695e-18
5.12512e-18
5.26627e-18
5.17702e-18
5.28962e-18
5.31975e-18
5.36687e-18
5.17863e-18
5.27275e-18
5.06615e-18
5.31284e-18
5.28718e-18
5.31187e-18
5.34154e-18
5.04117e-18
4.97968e-18
5.2377e-18
5.1796e-18
5.33652e-18
5.50498e-18
5.365e-18
5.05391e-18
5.28217e-18
5.14103e-18
5.15437e-18
5.10977e-18
4.90965e-18
5.33085e-18
5.18739e-18
5.22374e-18
5.20023e-18
5.27146e-18
5.12894e-18
4.65758e-18
5.25594e-18
5.11564e-18
5.15437e-18
5.1781e-18
5.50269e-18
5.63662e-18
5.10743e-18
5.39506e-18
5.17689e-18
5.3905e-18
5.01064e-18
5.13882e-18
5.0357e-18
5.17256e-18
5.34027e-18
5.28659e-18
5.13264e-18
5.11597e-18
5.22503e-18
5.22116e-18
5.14456e-18
5.08363e-18
5.41471e-18
5.38396e-18
5.26617e-18
5.02455e-18
5.13662e-18
5.2824e-18
5.26721e-18
5.07582e-18
5.31689e-18
5.20354e-18
5.50801e-18
5.16421e-18
5.4112e-18
5.19181e-18
4.97735e-18
5.07088e-18
5.33644e-18
5.26226e-18
5.10124e-18
5.12341e-18
5.16217e-18
4.91976e-18
5.3224e-18
5.3763e-18
5.309e-18
4.97394e-18
5.24146e-18
5.22045e-18
5.2848e-18
5.45914e-18
5.16934e-18
5.03782e-18
5.48789e-18
5.08738e-18
5.55488e-18
9.67015e-18
9.78895e-18
9.85412e-18
9.58501e-18
9.41484e-18
9.50445e-18
9.55658e-18
9.81771e-18
9.68342e-18
9.70402e-18
9.43757e-18
9.91327e-18
9.97186e-18
9.31971e-18
9.66617e-18
9.81271e-18
9.76291e-18
9.76273e-18
9.67839e-18
9.67349e-18
1.00157e-17
9.43032e-18
9.42938e-18
9.75691e-18
9.51808e-18
9.89969e-18
9.38554e-18
9.85187e-18
9.81229e-18
9.73633e-18
1.02576e-17
9.50231e-18
9.78079e-18
9.8158e-18
9.79522e-18
9.8342e-18
1.03037e-17
9.75989e-18
9.58791e-18
9.82515e-18
9.84947e-18
9.37783e-18
9.41807e-18
9.47137e-18
9.8507e-18
9.91236e-18
9.65303e-18
9.70421e-18
9.65252e-18
9.71407e-18
9.6425e-18
9.61316e-18
9.98194e-18
9.63246e-18
9.67572e-18
9.86006e-18
9.89699e-18
9.80738e-18
9.91728e-18
9.43599e-18
9.72164e-18
9.85648e-18
9.53925e-18
1.01375e-17
9.35465e-18
9.69365e-18
1.00046e-17
1.01096e-17
9.23569e-18
9.79822e-18
9.59688e-18
9.99057e-18
9.65168e-18
9.54879e-18
9.17744e-18
9.71748e-18
9.98687e-18
9.55594e-18
1.04721e-17
9.81753e-18
9.20182e-18
9.68679e-18
9.90932e-18
9.43701e-18
9.21112e-18
1.00072e-17
9.813e-18
9.78369e-18
9.79762e-18
9.53533e-18
9.58856e-18
9.32399e-18
9.89176e-18
9.83903e-18
9.4795e-18
9.21026e-18
9.71758e-18
9.45844e-18
9.92009e-18
9.54564e-18
9.59469e-18
9.43605e-18
9.90374e-18
9.46114e-18
9.62797e-18
9.14479e-18
9.84487e-18
9.54953e-18
9.84912e-18
9.70129e-18
9.67624e-18
9.52088e-18
1.03926e-17
9.44625e-18
9.71625e-18
1.05478e-17
9.75929e-18
9.49288e-18
9.9523e-18
9.78844e-18
9.64501e-18
9.72889e-18
1.02258e-17
9.60669e-18
9.23447e-18
9.30005e-18
9.71962e-18
1.03438e-17
9.52074e-18
9.87658e-18
9.9884e-18
9.46395e-18
9.23622e-18
9.64033e-18
1.00782e-17
9.96388e-18
9.73992e-18
9.21497e-18
9.7232e-18
9.66691e-18
9.34879e-18
9.32856e-18
9.58087e-18
9.82508e-18
9.71934e-18
9.96211e-18
9.59318e-18
9.34446e-18
9.74052e-18
9.51669e-18
9.6737e-18
9.37675e-18
9.84046e-18
9.61966e-18
9.58926e-18
9.82545e-18
9.1883e-18
9.28797e-18
9.49963e-18
1.01678e-17
9.18249e-18
9.7958e-18
9.15565e-18
9.23234e-18
1.00059e-17
1.02023e-17
9.75315e-18
9.51462e-18
9.6678e-18
9.52347e-18
9.72048e-18
9.96126e-18
9.68825e-18
9.37274e-18
9.64828e-18
9.86538e-18
9.86457e-18
9.84555e-18
9.37386e-18
1.07389e-17
9.7328e-18
9.41298e-18
9.01473e-18
9.84579e-18
9.45045e-18
9.73362e-18
9.81348e-18
9.68487e-18
1.00123e-17
9.05689e-18
9.66442e-18
9.74415e-18
9.72346e-18
9.38838e-18
1.01734e-17
9.51318e-18
9.70846e-18
9.64056e-18
9.82364e-18
9.26087e-18
1.03661e-17
9.76317e-18
9.60458e-18
9.44841e-18
9.85061e-18
9.17112e-18
9.84307e-18
1.0089e-17
9.2968e-18
9.86037e-18
9.72942e-18
9.60318e-18
9.75957e-18
9.80214e-18
9.7802e-18
9.62557e-18
9.49961e-18
9.41757e-18
9.0811e-18
9.90004e-18
9.51002e-18
9.91089e-18
9.75962e-18
9.36614e-18
9.69504e-18
9.83969e-18
9.38436e-18
9.46392e-18
1.00788e-17
9.83727e-18
9.09183e-18
9.52733e-18
9.54155e-18
9.72998e-18
9.63342e-18
9.00354e-18
9.8102e-18
9.66119e-18
9.69977e-18
9.96689e-18
1.00914e-17
9.36196e-18
9.527e-18
1.00995e-17
9.5889e-18
9.78758e-18
9.88756e-18
1.02093e-17
9.30958e-18
9.30549e-18
9.66303e-18
9.80167e-18
9.87648e-18
9.49508e-18
9.97906e-18
9.49192e-18
1.84632e-17
1.88629e-17
1.71837e-17
1.80098e-17
1.8317e-17
1.82771e-17
1.85203e-17
1.91532e-17
1.78783e-17
1.80389e-17
1.73408e-17
1.87331e-17
1.8881e-17
1.77265e-17
1.8037e-17
1.8598e-17
1.78387e-17
1.90046e-17
1.84907e-17
1.81505e-17
1.83246e-17
1.81582e-17
1.81463e-17
1.81661e-17
1.80154e-17
1.88421e-17
1.87504e-17
1.77425e-17
1.86511e-17
1.90185e-17
1.71475e-17
1.78445e-17
1.84209e-17
1.77086e-17
1.77821e-17
1.81753e-17
1.79438e-17
1.86015e-17
1.81319e-17
1.72224e-17
1.82353e-17
1.84094e-17
1.81129e-17
1.86789e-17
1.6888e-17
1.88689e-17
1.87709e-17
1.82564e-17
1.77973e-17
1.91915e-17
1.80032e-17
1.85743e-17
1.7679e-17
1.73292e-17
1.89515e-17
1.78762e-17
1.78588e-17
1.88766e-17
1.85682e-17
1.78653e-17
1.85929e-17
1.7941e-17
1.8518e-17
1.84184e-17
1.81593e-17
1.87793e-17
1.70474e-17
1.75331e-17
1.78956e-17
1.8469e-17
1.80312e-17
1.75665e-17
1.81945e-17
1.82017e-17
1.77759e-17
1.80255e-17
1.7928e-17
1.80935e-17
1.82547e-17
1.77707e-17
1.77432e-17
1.75772e-17
1.81976e-17
1.87723e-17
1.82149e-17
1.75708e-17
1.78632e-17
1.85008e-17
1.85681e-17
1.86148e-17
1.82847e-17
1.77532e-17
1.77328e-17
1.84238e-17
1.82235e-17
1.90066e-17
1.87348e-17
1.86469e-17
1.82322e-17
1.83078e-17
1.78286e-17
1.78772e-17
1.88342e-17
1.7963e-17
1.82941e-17
1.81265e-17
1.78979e-17
1.77356e-17
1.79769e-17
1.77701e-17
1.7715e-17
1.88531e-17
1.80707e-17
1.77652e-17
1.77663e-17
1.83834e-17
1.84215e-17
1.86652e-17
1.83598e-17
1.82437e-17
1.9223e-17
1.90937e-17
1.78831e-17
1.85556e-17
1.8299e-17
1.80033e-17
1.77693e-17
1.74884e-17
1.75974e-17
1.7996e-17
1.79869e-17
1.91406e-17
1.70083e-17
1.83438e-17
1.74493e-17
1.82954e-17
1.83327e-17
1.8027e-17
1.74289e-17
1.84078e-17
1.85433e-17
1.88054e-17
1.83484e-17
1.87687e-17
1.86931e-17
1.9205e-17
1.77636e-17
1.8024e-17
1.88902e-17
1.82365e-17
1.7965e-17
1.78129e-17
1.81325e-17
1.82503e-17
1.68535e-17
1.77658e-17
1.86175e-17
1.88457e-17
1.8697e-17
1.80872e-17
1.67044e-17
1.89401e-17
1.94261e-17
1.81323e-17
1.87856e-17
1.79009e-17
1.85167e-17
1.76676e-17
1.85078e-17
1.86228e-17
1.88232e-17
1.82354e-17
1.84814e-17
1.86174e-17
1.83448e-17
1.76445e-17
1.79553e-17
1.72468e-17
1.74508e-17
1.76863e-17
1.93081e-17
1.90196e-17
1.8995e-17
1.78162e-17
1.81162e-17
1.75791e-17
1.79279e-17
1.83696e-17
1.79001e-17
1.83641e-17
1.88054e-17
1.79085e-17
1.77626e-17
1.88848e-17
1.82317e-17
1.77296e-17
1.8337e-17
1.75155e-17
1.75571e-17
1.83505e-17
1.81132e-17
1.80369e-17
1.99509e-17
1.78831e-17
1.78909e-17
1.69647e-17
1.83588e-17
1.78353e-17
1.7583e-17
1.80222e-17
1.89513e-17
1.84232e-17
1.75307e-17
1.86776e-17
1.81989e-17
1.78029e-17
1.73359e-17
1.84401e-17
1.84469e-17
1.80299e-17
1.71228e-17
1.82763e-17
1.81723e-17
1.81784e-17
1.82593e-17
1.77293e-17
1.79866e-17
1.8815e-17
1.75083e-17
1.79423e-17
1.78471e-17
1.75289e-17
1.75219e-17
1.77823e-17
1.72716e-17
1.8231e-17
1.86524e-17
1.87881e-17
1.74382e-17
1.91033e-17
1.83965e-17
1.89456e-17
1.81723e-17
1.74326e-17
1.80228e-17
1.81021e-17
1.77208e-17
1.84823e-17
1.81189e-17
1.84701e-17
1.88269e-17
1.75128e-17
1.7794e-17
1.85856e-17
1.95442e-17
1.7423e-17
3.23156e-17
3.49678e-17
3.34048e-17
3.39491e-17
3.3881e-17
3.58995e-17
3.28982e-17
3.3084e-17
3.36382e-17
3.41966e-17
3.34481e-17
3.19565e-17
3.29118e-17
3.31502e-17
3.45926e-17
3.49383e-17
3.29387e-17
3.41941e-17
3.23554e-17
3.40918e-17
3.44452e-17
3.327e-17
3.31006e-17
3.26822e-17
3.45147e-17
3.41877e-17
3.25861e-17
3.33064e-17
3.26879e-17
3.22963e-17
3.38414e-17
3.61849e-17
3.30479e-17
3.37817e-17
3.37058e-17
3.29015e-17
3.51894e-17
3.29351e-17
3.43122e-17
3.32062e-17
3.2617e-17
3.50019e-17
3.4179e-17
3.3017e-17
3.44099e-17
3.26717e-17
3.44429e-17
3.34446e-17
3.37938e-17
3.51058e-17
3.34119e-17
3.31618e-17
3.35792e-17
3.44148e-17
3.29542e-17
3.30846e-17
3.29525e-17
3.28419e-17
3.3317e-17
3.3101e-17
3.37512e-17
3.38961e-17
3.21745e-17
3.25933e-17
3.55608e-17
3.37032e-17
3.26067e-17
3.58013e-17
3.41665e-17
3.18984e-17
3.15171e-17
3.31607e-17
3.57458e-17
3.33801e-17
3.37511e-17
3.32166e-17
3.39125e-17
3.3756e-17
3.31752e-17
3.49979e-17
3.26221e-17
3.41904e-17
3.38817e-17
3.50323e-17
3.49688e-17
3.25725e-17
3.52004e-17
3.302e-17
3.34114e-17
3.32441e-17
3.46874e-17
3.41617e-17
3.4414e-17
3.19058e-17
3.33574e-17
3.17198e-17
3.3563e-17
3.49369e-17
3.31333e-17
3.37765e-17
3.68269e-17
3.25449e-17
3.39028e-17
3.4194e-17
3.27353e-17
3.45016e-17
3.40429e-17
3.32594e-17
3.63711e-17
3.31434e-17
3.40005e-17
3.40894e-17
3.5771e-17
3.30385e-17
3.49113e-17
3.17425e-17
3.19051e-17
3.40468e-17
3.40277e-17
3.3868e-17
3.15657e-17
3.52655e-17
3.37733e-17
3.36942e-17
3.41935e-17
3.48699e-17
3.54047e-17
3.48863e-17
3.55824e-17
3.2889e-17
3.44567e-17
3.48433e-17
3.20648e-17
3.40723e-17
3.63741e-17
3.35565e-17
3.43002e-17
3.53518e-17
3.29405e-17
3.40314e-17
3.25774e-17
3.15583e-17
3.32578e-17
3.52129e-17
3.33108e-17
3.29833e-17
3.33752e-17
3.3933e-17
3.23441e-17
3.36668e-17
3.46674e-17
3.39093e-17
3.44846e-17
3.22714e-17
3.39343e-17
3.28198e-17
3.52941e-17
3.35023e-17
3.32417e-17
3.48484e-17
3.35409e-17
3.53693e-17
3.43606e-17
3.38813e-17
3.28773e-17
3.35273e-17
3.43827e-17
3.32021e-17
3.29896e-17
3.50173e-17
3.44479e-17
3.33038e-17
3.46935e-17
3.29486e-17
3.43023e-17
3.42578e-17
3.39596e-17
3.28026e-17
3.22825e-17
3.38578e-17
3.37186e-17
3.34714e-17
3.36745e-17
3.344e-17
3.40618e-17
3.40987e-17
3.5105e-17
3.37747e-17
3.3033e-17
3.5243e-17
3.35605e-17
3.4613e-17
3.3868e-17
3.26731e-17
3.40869e-17
3.45413e-17
3.55647e-17
3.227e-17
3.48086e-17
3.3824e-17
3.37944e-17
3.37765e-17
3.22367e-17
3.52967e-17
3.53923e-17
3.21819e-17
3.41649e-17
3.50646e-17
3.42698e-17
3.26889e-17
3.29964e-17
3.4138e-17
3.32257e-17
3.32343e-17
3.29553e-17
3.55811e-17
3.42781e-17
3.39828e-17
3.30525e-17
3.47288e-17
3.42607e-17
3.22893e-17
3.38178e-17
3.55562e-17
3.43407e-17
3.40569e-17
3.47372e-17
3.35439e-17
3.4765e-17
3.49982e-17
3.39993e-17
3.47525e-17
3.4807e-17
3.43279e-17
3.37333e-17
3.60187e-17
3.32595e-17
3.34646e-17
3.26764e-17
3.37308e-17
3.35458e-17
3.2934e-17
3.53898e-17
3.37004e-17
3.2661e-17
3.4768e-17
3.33433e-17
3.2762e-17
3.47271e-17
3.38548e-17
3.29186e-17
3.31553e-17
3.3386e-17
3.19551e-17
3.39396e-17
3.41565e-17
6.42024e-17
6.30561e-17
6.37761e-17
6.13401e-17
6.57864e-17
6.32047e-17
6.11521e-17
6.35858e-17
6.15798e-17
6.35799e-17
6.25202e-17
6.44021e-17
6.31427e-17
5.90367e-17
6.31861e-17
6.17237e-17
6.33063e-17
6.49048e-17
6.02009e-17
6.33596e-17
6.23884e-17
6.31835e-17
6.27705e-17
6.54716e-17
6.34377e-17
6.57093e-17
6.54672e-17
6.39982e-17
6.23511e-17
6.36901e-17
6.57257e-17
6.35468e-17
6.09282e-17
5.864e-17
6.25294e-17
6.63175e-17
6.57596e-17
6.43459e-17
5.92994e-17
6.5276e-17
6.38443e-17
6.56535e-17
6.79844e-17
6.06606e-17
6.00546e-17
6.66219e-17
6.1811e-17
6.20413e-17
6.505e-17
6.34738e-17
6.2433e-17
6.35216e-17
6.63895e-17
6.69068e-17
6.38405e-17
6.32482e-17
6.74953e-17
6.47522e-17
6.14641e-17
6.52964e-17
6.12785e-17
6.20726e-17
6.33594e-17
6.59649e-17
6.33402e-17
6.19612e-17
6.44071e-17
6.18573e-17
6.39812e-17
6.56279e-17
6.7911e-17
6.51639e-17
6.2266e-17
6.4528e-17
6.21474e-17
6.5411e-17
6.48224e-17
6.26122e-17
6.29257e-17
5.94556e-17
6.37175e-17
6.37827e-17
6.01118e-17
6.79723e-17
6.13376e-17
6.30724e-17
6.33122e-17
6.30624e-17
6.27574e-17
6.22858e-17
6.30204e-17
6.09243e-17
6.4241e-17
6.32337e-17
6.40041e-17
6.27458e-17
6.39016e-17
6.30066e-17
6.08464e-17
6.07173e-17
6.40101e-17
6.26326e-17
6.23151e-17
6.68324e-17
5.98412e-17
6.71855e-17
6.18822e-17
6.42992e-17
6.38154e-17
6.28507e-17
6.35082e-17
6.20063e-17
6.282e-17
6.26924e-17
6.6446e-17
6.55883e-17
6.23157e-17
6.38915e-17
6.7398e-17
6.23399e-17
6.33332e-17
6.20762e-17
5.93448e-17
6.13782e-17
6.38611e-17
6.08516e-17
6.19205e-17
6.29116e-17
6.57063e-17
6.50003e-17
6.34326e-17
6.31094e-17
6.3389e-17
6.58222e-17
6.25662e-17
6.15497e-17
6.31147e-17
6.212e-17
6.33246e-17
6.40417e-17
6.49629e-17
6.32738e-17
6.55287e-17
6.50747e-17
6.20836e-17
6.43934e-17
6.33154e-17
6.17046e-17
6.04141e-17
6.53989e-17
6.26861e-17
6.31407e-17
6.53777e-17
6.32773e-17
6.20912e-17
6.70709e-17
6.11984e-17
6.15592e-17
6.46403e-17
5.93408e-17
6.24835e-17
6.3323e-17
6.21454e-17
6.55039e-17
6.06893e-17
5.96413e-17
6.30815e-17
6.23407e-17
6.35096e-17
6.09588e-17
6.50211e-17
6.46999e-17
6.14218e-17
6.34415e-17
6.70697e-17
6.2197e-17
6.29205e-17
6.79599e-17
6.40303e-17
6.19143e-17
6.11303e-17
6.74828e-17
6.34521e-17
6.48096e-17
6.37052e-17
6.19627e-17
6.34985e-17
6.23349e-17
6.64591e-17
6.15144e-17
6.26578e-17
6.49942e-17
6.18237e-17
6.39489e-17
6.30984e-17
6.06628e-17
6.45285e-17
6.29965e-17
6.42474e-17
6.3395e-17
6.12674e-17
6.47892e-17
6.27675e-17
6.48924e-17
6.63631e-17
6.37761e-17
6.57544e-17
6.44462e-17
6.39982e-17
6.25332e-17
6.10905e-17
6.40317e-17
6.31968e-17
6.13983e-17
6.33536e-17
6.22495e-17
6.06196e-17
6.36609e-17
6.02326e-17
6.33758e-17
6.4481e-17
6.29282e-17
6.41228e-17
5.99245e-17
6.05841e-17
6.24915e-17
6.33175e-17
6.46508e-17
6.32224e-17
6.3214e-17
6.23338e-17
6.40977e-17
6.46915e-17
6.37878e-17
6.42198e-17
5.93255e-17
6.40163e-17
6.18451e-17
6.34421e-17
6.10182e-17
6.02042e-17
6.15336e-17
6.69505e-17
6.29104e-17
6.56751e-17
6.26725e-17
6.4894e-17
6.28692e-17
6.49212e-17
6.24151e-17
6.56018e-17
6.67547e-17
6.36347e-17
6.13434e-17
6.2538e-17
6.67739e-17
1.11516e-16
1.20249e-16
1.20707e-16
1.1599e-16
1.20322e-16
1.17715e-16
1.24066e-16
1.17787e-16
1.12627e-16
1.14866e-16
1.17279e-16
1.238e-16
1.16251e-16
1.23096e-16
1.122e-16
1.18441e-16
1.23212e-16
1.1953e-16
1.17094e-16
1.15711e-16
1.11907e-16
1.20783e-16
1.15e-16
1.22218e-16
1.14443e-16
1.21943e-16
1.20481e-16
1.16391e-16
1.17134e-16
1.17696e-16
1.12302e-16
1.25868e-16
1.22166e-16
1.17213e-16
1.19897e-16
1.21762e-16
1.18197e-16
1.14059e-16
1.21374e-16
1.18098e-16
1.09467e-16
1.20484e-16
1.19674e-16
1.20388e-16
1.21241e-16
1.14976e-16
1.18957e-16
1.15342e-16
1.19412e-16
1.16688e-16
1.15994e-16
1.17794e-16
1.18062e-16
1.14289e-16
1.20365e-16
1.1929e-16
1.18617e-16
1.1581e-16
1.15841e-16
1.23496e-16
1.13722e-16
1.25221e-16
1.17786e-16
1.18439e-16
1.12373e-16
1.15577e-16
1.17339e-16
1.25901e-16
1.12883e-16
1.15738e-16
1.22084e-16
1.17843e-16
1.17801e-16
1.17805e-16
1.19127e-16
1.17925e-16
1.23434e-16
1.15383e-16
1.1652e-16
1.22715e-16
1.1391e-16
1.21589e-16
1.13815e-16
1.20319e-16
1.22361e-16
1.13338e-16
1.16297e-16
1.15659e-16
1.18257e-16
1.18648e-16
1.16707e-16
1.21191e-16
1.20872e-16
1.15351e-16
1.19028e-16
1.20389e-16
1.16365e-16
1.21978e-16
1.18895e-16
1.16197e-16
1.17823e-16
1.16112e-16
1.19989e-16
1.17193e-16
1.20728e-16
1.14698e-16
1.18982e-16
1.14764e-16
1.16472e-16
1.15966e-16
1.17225e-16
1.18057e-16
1.11245e-16
1.19945e-16
1.10207e-16
1.21722e-16
1.1841e-16
1.12069e-16
1.1673e-16
1.07461e-16
1.2765e-16
1.22497e-16
1.19328e-16
1.15622e-16
1.18425e-16
1.21814e-16
1.18798e-16
1.17509e-16
1.20296e-16
1.13928e-16
1.18935e-16
1.15083e-16
1.19255e-16
1.19177e-16
1.1661e-16
1.19433e-16
1.10173e-16
1.17357e-16
1.18452e-16
1.15265e-16
1.1562e-16
1.19382e-16
1.20402e-16
1.1252e-16
1.2156e-16
1.18066e-16
1.17682e-16
1.16258e-16
1.23307e-16
1.19028e-16
1.15249e-16
1.23544e-16
1.22415e-16
1.21665e-16
1.13061e-16
1.24361e-16
1.24181e-16
1.15006e-16
1.24081e-16
1.16437e-16
1.17324e-16
1.16913e-16
1.20779e-16
1.16966e-16
1.21514e-16
1.19391e-16
1.21935e-16
1.16202e-16
1.18992e-16
1.16329e-16
1.20624e-16
1.14475e-16
1.21076e-16
1.12835e-16
1.15644e-16
1.19802e-16
1.1683e-16
1.21124e-16
1.15763e-16
1.19207e-16
1.1918e-16
1.19194e-16
1.13618e-16
1.1532e-16
1.16602e-16
1.19068e-16
1.17873e-16
1.12812e-16
1.21453e-16
1.21989e-16
1.12275e-16
1.16186e-16
1.19207e-16
1.15722e-16
1.19707e-16
1.17085e-16
1.12315e-16
1.179e-16
1.17507e-16
1.17707e-16
1.23197e-16
1.17707e-16
1.20033e-16
1.23222e-16
1.10069e-16
1.14791e-16
1.19241e-16
1.15328e-16
1.17086e-16
1.17402e-16
1.18023e-16
1.22595e-16
1.20889e-16
1.15409e-16
1.16367e-16
1.20871e-16
1.19371e-16
1.22205e-16
1.14014e-16
1.18278e-16
1.1786e-16
1.19594e-16
1.16546e-16
1.17307e-16
1.25339e-16
1.21184e-16
1.14666e-16
1.20801e-16
1.17936e-16
1.16583e-16
1.16031e-16
1.12773e-16
1.20892e-16
1.18295e-16
1.19394e-16
1.18672e-16
1.18835e-16
1.15058e-16
1.13567e-16
1.1481e-16
1.18582e-16
1.17957e-16
1.15914e-16
1.22072e-16
1.16324e-16
1.16977e-16
1.25163e-16
1.11613e-16
1.14034e-16
1.12415e-16
1.20175e-16
1.19028e-16
1.19756e-16
1.17258e-16
1.17496e-16
1.13314e-16
2.31088e-16
2.20452e-16
2.14608e-16
2.1653e-16
2.17008e-16
2.1189e-16
2.22855e-16
2.24935e-16
2.1666e-16
2.27473e-16
2.26315e-16
2.29954e-16
2.26131e-16
2.21354e-16
2.17211e-16
2.16806e-16
2.139e-16
2.23493e-16
2.15396e-16
2.13267e-16
2.24139e-16
2.21449e-16
2.10257e-16
2.19948e-16
2.24874e-16
2.1751e-16
2.17996e-16
2.24725e-16
2.11384e-16
2.15257e-16
2.20281e-16
2.28968e-16
2.28006e-16
2.19206e-16
2.14837e-16
2.15235e-16
2.1511e-16
2.17838e-16
2.15062e-16
2.12476e-16
2.15131e-16
2.19761e-16
2.25745e-16
2.12062e-16
2.25552e-16
2.27203e-16
2.21492e-16
2.13253e-16
2.1482e-16
2.32678e-16
2.09428e-16
2.24207e-16
2.21246e-16
2.30087e-16
2.31446e-16
2.17864e-16
2.25345e-16
2.23712e-16
2.19082e-16
2.17746e-16
2.40286e-16
2.18802e-16
2.16322e-16
2.16417e-16
2.24872e-16
2.28089e-16
2.11772e-16
2.17822e-16
2.19553e-16
2.24937e-16
2.18266e-16
2.18638e-16
2.10624e-16
2.28817e-16
2.13119e-16
2.21024e-16
2.21095e-16
2.30913e-16
2.1847e-16
2.31143e-16
2.17859e-16
2.25086e-16
2.20847e-16
2.20696e-16
2.24124e-16
2.15164e-16
2.25645e-16
2.16572e-16
2.11659e-16
2.33215e-16
2.2459e-16
2.19053e-16
2.25608e-16
2.27535e-16
2.31814e-16
2.21789e-16
2.16422e-16
2.27333e-16
2.27006e-16
2.28067e-16
2.24347e-16
2.27669e-16
2.2574e-16
2.12088e-16
2.25742e-16
2.28285e-16
2.2488e-16
2.21681e-16
2.15367e-16
2.20226e-16
2.25468e-16
2.20217e-16
2.20599e-16
2.20603e-16
2.23399e-16
2.19282e-16
2.1732e-16
2.16908e-16
2.23988e-16
2.07946e-16
2.26432e-16
2.14015e-16
2.29346e-16
2.29762e-16
2.30616e-16
2.12204e-16
2.24455e-16
2.20891e-16
2.2643e-16
2.11514e-16
2.17334e-16
2.23609e-16
2.16993e-16
2.13386e-16
2.18838e-16
2.10969e-16
2.29557e-16
2.20129e-16
2.20509e-16
2.2225e-16
2.22194e-16
2.19059e-16
2.21096e-16
2.29316e-16
2.17441e-16
2.19964e-16
2.26084e-16
2.12023e-16
2.37724e-16
2.29348e-16
2.13367e-16
2.08294e-16
2.179e-16
2.08761e-16
2.15146e-16
2.24208e-16
2.12126e-16
2.20729e-16
2.22302e-16
2.20772e-16
2.29418e-16
2.3197e-16
2.22273e-16
2.12951e-16
2.16843e-16
2.14475e-16
2.19986e-16
2.16763e-16
2.16295e-16
2.24508e-16
2.17862e-16
2.31571e-16
2.26307e-16
2.15485e-16
2.24825e-16
2.31624e-16
2.166e-16
2.30243e-16
2.1798e-16
2.19411e-16
2.30165e-16
2.27437e-16
2.15105e-16
2.19185e-16
2.28451e-16
2.13774e-16
2.29433e-16
2.16482e-16
2.22897e-16
2.27404e-16
2.21232e-16
2.19322e-16
2.25664e-16
2.16543e-16
2.16366e-16
2.19054e-16
2.18289e-16
2.29878e-16
2.14569e-16
2.23749e-16
2.10577e-16
2.21789e-16
2.1229e-16
2.15657e-16
2.2055e-16
2.18899e-16
2.2879e-16
2.16726e-16
2.20594e-16
2.31936e-16
2.16818e-16
2.21656e-16
2.15239e-16
2.20559e-16
2.28114e-16
2.04692e-16
2.2855e-16
2.18461e-16
2.24039e-16
2.30962e-16
2.24168e-16
2.29726e-16
2.16247e-16
2.39592e-16
2.13718e-16
2.23509e-16
2.24399e-16
2.21316e-16
2.23128e-16
2.20992e-16
2.30988e-16
2.34605e-16
2.20863e-16
2.21781e-16
2.21965e-16
2.22797e-16
2.19357e-16
2.36046e-16
2.24291e-16
2.20958e-16
2.24876e-16
2.24466e-16
2.20353e-16
2.25262e-16
2.17386e-16
2.13819e-16
2.21396e-16
2.33787e-16
2.21661e-16
2.18259e-16
2.23884e-16
2.20278e-16
2.14022e-16
2.13351e-16
2.22918e-16
2.19571e-16
4.0466e-16
3.98696e-16
4.40987e-16
4.32116e-16
4.2108e-16
4.15335e-16
3.918e-16
4.11815e-16
4.22192e-16
3.93834e-16
4.06085e-16
4.06039e-16
3.94199e-16
4.12541e-16
4.05221e-16
3.90196e-16
4.17532e-16
4.0562e-16
4.00311e-16
4.26216e-16
4.0192e-16
4.08604e-16
4.10181e-16
4.25093e-16
4.18404e-16
4.14208e-16
4.16611e-16
4.08217e-16
4.00691e-16
4.21311e-16
4.1268e-16
4.0704e-16
3.96785e-16
4.1392e-16
4.09523e-16
4.27641e-16
4.06088e-16
4.18976e-16
4.34642e-16
4.25985e-16
4.33627e-16
3.96046e-16
4.11384e-16
4.25403e-16
4.00876e-16
4.10506e-16
4.13374e-16
4.20583e-16
4.18848e-16
4.06878e-16
4.14954e-16
4.28783e-16
4.32097e-16
4.20809e-16
3.99574e-16
3.82674e-16
4.02903e-16
4.09956e-16
4.09851e-16
4.08008e-16
4.19479e-16
4.00651e-16
3.95486e-16
4.22586e-16
4.04611e-16
3.97234e-16
4.16258e-16
4.15593e-16
4.08796e-16
4.30136e-16
4.15291e-16
4.05275e-16
4.18492e-16
4.17344e-16
4.16221e-16
4.10392e-16
4.06297e-16
4.21196e-16
4.04537e-16
4.29047e-16
4.09165e-16
4.13135e-16
4.11383e-16
4.06064e-16
4.19426e-16
4.06647e-16
4.16605e-16
4.17045e-16
3.9485e-16
3.84928e-16
3.91397e-16
4.12627e-16
4.25965e-16
3.94387e-16
4.12595e-16
4.03592e-16
4.16928e-16
4.07945e-16
4.11311e-16
3.97163e-16
4.00258e-16
4.15079e-16
4.22072e-16
3.94521e-16
4.08373e-16
4.23304e-16
4.17046e-16
4.18596e-16
4.14131e-16
4.09343e-16
4.19449e-16
4.08257e-16
4.19307e-16
4.41371e-16
4.11506e-16
3.98e-16
4.14574e-16
4.05701e-16
4.30892e-16
4.06564e-16
4.12737e-16
3.93285e-16
4.05334e-16
3.98664e-16
4.1734e-16
3.93619e-16
4.0286e-16
3.95118e-16
3.93382e-16
4.22264e-16
4.22957e-16
4.23452e-16
3.85519e-16
4.13732e-16
4.0615e-16
4.17063e-16
4.15051e-16
4.19099e-16
4.10953e-16
4.02725e-16
4.09233e-16
4.13525e-16
4.1611e-16
3.83959e-16
4.03874e-16
4.26218e-16
4.18631e-16
4.01759e-16
4.04806e-16
4.01518e-16
4.00261e-16
4.35274e-16
4.21099e-16
3.99666e-16
4.08375e-16
4.38223e-16
4.27164e-16
4.02312e-16
4.00094e-16
4.02851e-16
4.05764e-16
4.15543e-16
4.09442e-16
4.17622e-16
4.28459e-16
4.11318e-16
4.13523e-16
4.0446e-16
4.17679e-16
4.16911e-16
4.03517e-16
4.04311e-16
3.98248e-16
4.05043e-16
3.8039e-16
4.22819e-16
4.01392e-16
4.23094e-16
4.21126e-16
4.08034e-16
4.21406e-16
4.00513e-16
4.06498e-16
4.23433e-16
4.14057e-16
4.11897e-16
4.20012e-16
3.8899e-16
4.14575e-16
4.30271e-16
3.92262e-16
4.21551e-16
4.21605e-16
4.22799e-16
4.12075e-16
4.25485e-16
4.02832e-16
4.10266e-16
4.0636e-16
4.22472e-16
4.08957e-16
4.17517e-16