# vtk DataFile Version 1.0
Ion Density - Current Sheet
ASCII
DATASET STRUCTURED_POINTS
DIMENSIONS 256 128 1
ORIGIN 0 0 0
SPACING 0.15625 0.15625 1
POINT_DATA 32768
SCALARS rhoi float
LOOKUP_TABLE default
1.6422e-18
1.51299e-18
1.42978e-18
1.60206e-18
1.90854e-18
1.94749e-18
1.88395e-18
1.8462e-18
1.76278e-18
1.84884e-18
1.95675e-18
2.15931e-18
2.02914e-18
1.46505e-18
1.422e-18
1.71922e-18
1.92182e-18
2.2344e-18
1.8606e-18
1.61019e-18
1.95199e-18
1.82998e-18
2.18589e-18
1.88309e-18
1.83229e-18
2.21376e-18
2.11642e-18
1.69554e-18
1.72701e-18
2.35733e-18
2.01561e-18
1.71368e-18
1.79077e-18
2.14818e-18
1.9104e-18
1.86104e-18
1.80989e-18
2.16038e-18
2.21815e-18
1.66855e-18
1.61998e-18
1.95919e-18
1.94697e-18
1.57057e-18
1.67481e-18
1.69654e-18
1.83642e-18
2.07441e-18
1.77703e-18
1.6793e-18
1.87124e-18
1.87243e-18
1.80607e-18
1.49915e-18
1.78235e-18
1.85312e-18
1.7137e-18
1.73246e-18
1.69028e-18
1.90245e-18
2.0033e-18
1.93684e-18
1.86741e-18
2.04517e-18
2.05546e-18
1.82056e-18
1.60333e-18
1.73284e-18
1.67528e-18
1.70678e-18
2.09054e-18
2.14931e-18
1.59491e-18
1.53794e-18
1.6036e-18
1.50418e-18
1.64054e-18
1.89949e-18
1.69056e-18
1.95939e-18
1.78363e-18
2.27156e-18
2.00762e-18
1.59539e-18
2.0434e-18
2.1167e-18
1.78207e-18
1.72925e-18
1.82427e-18
1.67897e-18
1.54419e-18
1.42152e-18
1.71447e-18
1.70013e-18
1.67151e-18
1.98065e-18
1.78563e-18
2.10399e-18
1.73419e-18
1.64226e-18
1.76969e-18
1.80877e-18
1.4195e-18
1.55161e-18
1.74723e-18
1.75649e-18
1.75756e-18
2.04031e-18
2.07465e-18
1.66886e-18
1.8913e-18
2.03176e-18
2.0156e-18
1.91189e-18
1.90071e-18
1.69492e-18
1.5787e-18
1.72372e-18
1.95609e-18
1.81142e-18
1.57866e-18
1.88375e-18
1.64401e-18
1.74003e-18
2.22676e-18
1.96191e-18
1.77556e-18
1.65825e-18
1.59783e-18
1.72881e-18
1.7963e-18
1.6947e-18
1.75097e-18
2.0425e-18
1.89782e-18
2.08761e-18
2.02093e-18
1.9719e-18
1.97874e-18
1.91389e-18
1.68869e-18
1.74665e-18
1.49786e-18
1.60418e-18
2.15271e-18
1.89286e-18
1.45849e-18
1.70697e-18
1.88814e-18
1.74624e-18
1.87536e-18
1.76567e-18
1.9692e-18
2.02108e-18
2.12555e-18
2.08926e-18
2.19144e-18
1.837e-18
2.01094e-18
2.01488e-18
1.79435e-18
1.69771e-18
1.75147e-18
1.37166e-18
1.75904e-18
1.99715e-18
1.7077e-18
2.01996e-18
1.69758e-18
1.44221e-18
1.72336e-18
1.96307e-18
1.51698e-18
1.52203e-18
1.96594e-18
1.73279e-18
1.80637e-18
2.06816e-18
1.98944e-18
2.03164e-18
1.91187e-18
2.02944e-18
2.17854e-18
1.91369e-18
1.91869e-18
1.82789e-18
1.67269e-18
1.9187e-18
2.06116e-18
2.01874e-18
1.86128e-18
2.22994e-18
2.04663e-18
1.78745e-18
1.64683e-18
2.17273e-18
1.92658e-18
1.91034e-18
1.55622e-18
2.12019e-18
1.80504e-18
1.76402e-18
1.78908e-18
1.9567e-18
2.019e-18
2.26065e-18
1.88929e-18
1.68196e-18
1.42212e-18
1.43283e-18
1.7436e-18
1.99545e-18
1.99691e-18
2.00938e-18
1.76464e-18
1.86729e-18
1.95227e-18
2.09509e-18
2.15177e-18
1.98805e-18
1.82814e-18
1.49591e-18
1.5311e-18
1.4581e-18
1.59822e-18
1.83632e-18
1.77751e-18
1.62113e-18
1.7232e-18
1.73872e-18
1.6351e-18
1.38168e-18
1.81519e-18
1.96814e-18
1.5367e-18
1.6556e-18
1.80226e-18
1.70252e-18
1.84547e-18
1.64957e-18
1.88878e-18
1.83657e-18
2.06838e-18
1.76749e-18
1.35294e-18
2.22325e-18
1.77365e-18
1.99363e-18
2.19114e-18
1.88191e-18
1.5515e-18
1.84851e-18
2.17528e-18
1.65095e-18
1.36768e-18
1.43823e-18
2.53337e-18
2.67955e-18
2.4932e-18
2.61343e-18
2.51138e-18
2.75697e-18
2.81109e-18
2.67958e-18
2.74402e-18
2.87008e-18
2.66348e-18
2.93257e-18
3.04514e-18
2.68488e-18
2.62423e-18
2.66909e-18
3.12676e-18
2.72929e-18
2.6188e-18
2.6438e-18
2.90022e-18
2.92243e-18
2.92915e-18
2.83228e-18
2.95651e-18
2.95195e-18
3.01112e-18
2.68664e-18
2.94869e-18
2.89093e-18
2.69467e-18
2.78266e-18
2.84586e-18
2.44064e-18
2.71846e-18
2.74158e-18
2.81228e-18
2.65665e-18
2.78618e-18
3.04622e-18
2.75325e-18
2.84922e-18
2.91564e-18
2.80204e-18
2.79671e-18
2.75772e-18
3.06532e-18
3.01506e-18
2.81317e-18
3.00164e-18
2.71539e-18
2.79963e-18
2.95861e-18
2.86845e-18
2.54503e-18
2.85861e-18
3.02872e-18
2.94577e-18
2.96763e-18
2.79432e-18
2.92893e-18
2.88185e-18
2.90351e-18
2.64188e-18
2.58533e-18
2.70177e-18
2.56899e-18
2.39813e-18
2.48746e-18
2.77059e-18
2.8559e-18
2.94925e-18
2.76088e-18
3.1699e-18
2.76668e-18
2.79299e-18
2.57771e-18
2.91024e-18
2.74093e-18
2.81232e-18
2.87521e-18
3.11328e-18
2.76928e-18
2.79632e-18
2.96617e-18
2.91598e-18
2.80136e-18
3.04747e-18
2.77654e-18
2.43718e-18
2.78616e-18
2.59413e-18
2.70564e-18
2.7007e-18
2.67108e-18
3.07245e-18
2.93795e-18
2.73704e-18
2.71609e-18
2.95096e-18
2.63339e-18
2.61878e-18
2.74501e-18
2.91743e-18
3.1248e-18
2.59222e-18
2.89133e-18
2.70326e-18
2.65647e-18
2.97435e-18
2.85839e-18
2.53857e-18
2.90232e-18
2.55374e-18
2.82481e-18
2.9345e-18
2.66378e-18
2.78483e-18
2.66168e-18
2.77784e-18
2.82937e-18
2.8891e-18
2.88134e-18
2.5539e-18
2.58802e-18
2.8057e-18
3.02346e-18
2.67594e-18
2.30328e-18
2.67218e-18
2.71951e-18
2.27306e-18
2.81196e-18
3.18442e-18
2.88992e-18
2.79061e-18
2.59164e-18
2.99372e-18
2.93512e-18
2.6717e-18
2.6824e-18
2.61041e-18
2.74718e-18
2.85036e-18
2.86962e-18
2.79512e-18
2.58573e-18
2.67857e-18
2.60601e-18
2.774e-18
2.74401e-18
2.57467e-18
2.85959e-18
3.2024e-18
2.95756e-18
2.88605e-18
2.76717e-18
2.71644e-18
2.94429e-18
2.89047e-18
2.78597e-18
2.91989e-18
2.77292e-18
2.81552e-18
2.78781e-18
2.90947e-18
2.98936e-18
2.81651e-18
2.38141e-18
2.72363e-18
2.74434e-18
2.66756e-18
2.86328e-18
2.85149e-18
2.81566e-18
2.97015e-18
2.6523e-18
2.5391e-18
2.86027e-18
2.5728e-18
2.64725e-18
2.8437e-18
2.97059e-18
2.63728e-18
3.24469e-18
2.71243e-18
2.66053e-18
2.71119e-18
2.79929e-18
3.27909e-18
2.97267e-18
2.59197e-18
2.57852e-18
2.66583e-18
2.47676e-18
2.94188e-18
3.06208e-18
2.81656e-18
2.69858e-18
2.80899e-18
2.89727e-18
2.74667e-18
2.89817e-18
3.40398e-18
3.33539e-18
3.07295e-18
2.81839e-18
2.75473e-18
3.17728e-18
3.00022e-18
2.67259e-18
2.85514e-18
2.88859e-18
2.82511e-18
2.76055e-18
2.65309e-18
2.89714e-18
2.74488e-18
2.83148e-18
2.70833e-18
2.90562e-18
2.84731e-18
2.41598e-18
2.55801e-18
2.53138e-18
2.77804e-18
2.63364e-18
2.89474e-18
3.06987e-18
2.81989e-18
2.77896e-18
2.65369e-18
3.13541e-18
3.11638e-18
2.75822e-18
2.5694e-18
2.68003e-18
2.96123e-18
3.02727e-18
2.86333e-18
2.85421e-18
3.14509e-18
2.83658e-18
2.72773e-18
2.7784e-18
2.91819e-18
2.4486e-18
2.75176e-18
2.93194e-18
3.06245e-18
3.05394e-18
3.24914e-18
2.53468e-18
2.63259e-18
2.89844e-18
2.84531e-18
5.64993e-18
4.59613e-18
5.21552e-18
4.55435e-18
4.77693e-18
5.30391e-18
4.78041e-18
4.98373e-18
5.49998e-18
5.177e-18
4.80887e-18
5.32627e-18
5.50852e-18
5.1727e-18
4.99802e-18
4.88106e-18
5.56977e-18
4.96903e-18
5.00525e-18
4.75558e-18
5.05223e-18
4.77701e-18
5.41807e-18
5.04303e-18
5.35742e-18
4.7806e-18
4.8794e-18
4.81885e-18
4.79799e-18
4.77273e-18
5.08374e-18
4.89263e-18
4.86639e-18
5.01387e-18
5.37035e-18
6.02171e-18
5.54069e-18
5.03101e-18
5.04696e-18
5.0766e-18
5.29303e-18
4.8829e-18
5.59184e-18
5.17584e-18
5.34126e-18
5.16757e-18
5.52143e-18
5.55847e-18
5.21712e-18
5.115e-18
4.34069e-18
4.72325e-18
5.1771e-18
4.76354e-18
5.53126e-18
5.01828e-18
4.93278e-18
5.84827e-18
5.61181e-18
5.657e-18
5.17534e-18
5.5197e-18
5.71851e-18
5.43494e-18
5.37339e-18
5.17937e-18
5.72444e-18
5.67472e-18
5.1136e-18
5.76815e-18
5.28745e-18
5.2312e-18
6.03139e-18
5.79772e-18
4.9215e-18
5.26234e-18
5.00559e-18
6.0123e-18
4.59509e-18
5.046e-18
5.22666e-18
4.71903e-18
5.28648e-18
5.74811e-18
5.12367e-18
5.42394e-18
5.32937e-18
5.11795e-18
5.49968e-18
5.33098e-18
5.20157e-18
5.0624e-18
4.63975e-18
5.59425e-18
5.23954e-18
4.81887e-18
5.48363e-18
5.11945e-18
5.13703e-18
4.86746e-18
4.87832e-18
5.19769e-18
5.00998e-18
5.37996e-18
4.95497e-18
4.5505e-18
5.40255e-18
5.36e-18
5.0388e-18
5.36768e-18
5.55036e-18
5.2725e-18
4.84972e-18
5.60106e-18
5.97653e-18
5.84822e-18
5.46824e-18
5.81453e-18
5.98781e-18
5.52205e-18
5.28467e-18
5.18489e-18
5.61231e-18
5.21308e-18
4.74887e-18
4.8837e-18
5.85279e-18
5.40796e-18
5.15163e-18
5.43549e-18
5.24389e-18
5.36745e-18
5.00292e-18
5.20416e-18
5.40685e-18
4.9839e-18
4.69433e-18
4.74337e-18
5.78679e-18
5.49787e-18
4.83432e-18
4.9207e-18
5.54006e-18
5.17718e-18
4.80068e-18
5.63107e-18
4.86471e-18
5.14772e-18
4.98136e-18
4.81976e-18
4.85924e-18
4.88813e-18
5.02323e-18
5.22575e-18
4.59319e-18
4.79613e-18
5.78852e-18
5.80246e-18
5.53067e-18
5.63201e-18
4.96236e-18
5.44034e-18
5.16386e-18
5.22725e-18
4.60757e-18
5.49152e-18
5.97641e-18
5.12719e-18
5.07993e-18
5.65158e-18
5.28758e-18
5.42403e-18
5.73584e-18
5.90213e-18
5.07179e-18
4.95739e-18
5.95582e-18
5.41896e-18
4.89381e-18
5.09178e-18
4.83899e-18
5.21688e-18
5.30849e-18
5.19193e-18
6.17443e-18
5.45017e-18
5.12322e-18
4.92343e-18
5.55617e-18
5.8695e-18
4.91432e-18
4.99496e-18
5.12115e-18
5.42098e-18
5.84868e-18
5.23278e-18
5.49207e-18
5.07528e-18
4.88117e-18
5.40958e-18
5.86017e-18
5.30102e-18
5.62757e-18
5.79707e-18
5.02842e-18
5.13182e-18
5.14034e-18
5.03784e-18
5.25749e-18
5.26119e-18
5.21692e-18
4.56611e-18
5.09006e-18
4.98731e-18
5.36411e-18
5.04968e-18
5.16578e-18
4.50699e-18
4.74606e-18
5.08014e-18
5.32385e-18
5.72316e-18
5.85652e-18
5.14784e-18
4.73831e-18
5.14233e-18
4.88509e-18
5.03144e-18
5.08478e-18
4.89744e-18
4.79321e-18
5.08172e-18
5.011e-18
5.10318e-18
4.67041e-18
4.77034e-18
5.20869e-18
5.35187e-18
5.49351e-18
5.1739e-18
5.3009e-18
5.34783e-18
5.04859e-18
5.07354e-18
5.48968e-18
5.28535e-18
4.82749e-18
5.19783e-18
5.35446e-18
5.9133e-18
5.30732e-18
6.00903e-18
4.89951e-18
4.76707e-18
5.8003e-18
5.75574e-18
9.73333e-18
8.96365e-18
1.00823e-17
9.1587e-18
9.81307e-18
9.1445e-18
9.24064e-18
1.00817e-17
1.01863e-17
8.54058e-18
8.69968e-18
9.20105e-18
9.58863e-18
1.05354e-17
9.50082e-18
9.35522e-18
9.81442e-18
9.88229e-18
1.06609e-17
9.64896e-18
1.08766e-17
9.58443e-18
8.59077e-18
9.43748e-18
1.06141e-17
1.00888e-17
1.01203e-17
1.0518e-17
1.22507e-17
1.0952e-17
9.32694e-18
8.5336e-18
9.91138e-18
1.03248e-17
1.03058e-17
9.03943e-18
1.065e-17
1.09191e-17
9.54068e-18
8.42167e-18
9.86973e-18
9.08731e-18
8.39695e-18
1.07248e-17
9.8788e-18
9.82363e-18
1.10473e-17
1.03997e-17
1.03727e-17
1.07997e-17
9.42737e-18
9.88334e-18
8.7236e-18
1.02159e-17
9.06806e-18
9.44095e-18
1.00223e-17
1.01016e-17
1.00313e-17
9.38729e-18
9.29345e-18
9.22455e-18
8.61292e-18
1.07299e-17
9.66074e-18
9.76593e-18
1.12208e-17
9.86871e-18
9.01895e-18
1.02998e-17
1.00622e-17
1.00001e-17
9.85359e-18
9.41979e-18
8.98019e-18
8.65308e-18
9.16793e-18
8.8101e-18
1.02993e-17
9.61337e-18
9.05293e-18
8.78348e-18
9.15923e-18
1.05765e-17
8.63964e-18
9.89458e-18
1.04771e-17
1.09191e-17
1.08577e-17
1.02817e-17
1.01385e-17
1.00366e-17
9.42527e-18
1.01095e-17
9.00946e-18
8.6306e-18
1.06444e-17
1.04106e-17
8.68405e-18
9.2514e-18
9.46302e-18
1.02378e-17
9.83703e-18
1.00285e-17
9.22935e-18
8.7739e-18
9.51048e-18
9.39467e-18
9.98511e-18
9.36531e-18
9.98391e-18
1.00181e-17
9.7176e-18
9.77359e-18
9.24318e-18
1.0732e-17
1.01214e-17
9.45006e-18
9.35493e-18
9.37351e-18
1.06494e-17
1.04827e-17
1.09082e-17
9.91333e-18
9.03857e-18
9.56217e-18
9.93845e-18
9.93822e-18
9.61908e-18
9.61647e-18
1.0333e-17
9.92134e-18
9.05087e-18
8.74386e-18
9.62553e-18
9.93336e-18
1.03417e-17
9.98203e-18
1.02699e-17
9.86957e-18
8.47271e-18
9.12953e-18
1.05782e-17
1.02548e-17
1.00198e-17
1.00736e-17
9.8646e-18
9.6535e-18
9.6637e-18
9.61641e-18
8.94744e-18
9.62132e-18
9.20563e-18
8.95247e-18
8.86897e-18
7.99388e-18
1.08406e-17
9.66638e-18
9.72721e-18
9.17411e-18
8.26806e-18
1.02963e-17
1.07214e-17
9.32893e-18
1.06507e-17
9.57146e-18
9.79339e-18
1.00689e-17
1.0693e-17
1.01938e-17
9.22953e-18
1.10801e-17
1.11229e-17
9.37368e-18
7.8682e-18
9.74014e-18
1.07818e-17
8.45147e-18
1.02265e-17
1.09585e-17
1.01024e-17
9.10819e-18
9.40798e-18
8.54037e-18
9.24255e-18
8.72817e-18
9.13551e-18
9.95234e-18
9.56546e-18
1.06558e-17
8.71092e-18
1.06541e-17
9.87076e-18
8.95786e-18
1.03791e-17
9.48403e-18
8.49297e-18
9.36653e-18
9.79117e-18
9.28826e-18
1.06833e-17
1.03545e-17
9.30929e-18
1.10601e-17
9.1366e-18
8.87331e-18
1.0317e-17
9.58495e-18
9.46444e-18
9.21648e-18
9.51477e-18
9.043e-18
1.0448e-17
9.2733e-18
9.75476e-18
8.60142e-18
9.30987e-18
1.02812e-17
9.45271e-18
8.41093e-18
9.41844e-18
1.02646e-17
1.04066e-17
9.19863e-18
9.06976e-18
9.43051e-18
8.32557e-18
9.58711e-18
1.02177e-17
8.9507e-18
8.76279e-18
9.12632e-18
1.0341e-17
1.01081e-17
9.26764e-18
8.60374e-18
1.00758e-17
1.06316e-17
1.01117e-17
1.05284e-17
1.02865e-17
1.02013e-17
8.13691e-18
9.82096e-18
9.3558e-18
8.99421e-18
9.48669e-18
9.39538e-18
9.78856e-18
1.04988e-17
8.69376e-18
9.50461e-18
1.08423e-17
1.06328e-17
9.51069e-18
1.00147e-17
1.78358e-17
1.76251e-17
1.86019e-17
1.89208e-17
1.98136e-17
1.73317e-17
1.78271e-17
1.86337e-17
2.0202e-17
1.77196e-17
1.71888e-17
1.72627e-17
1.73509e-17
1.74916e-17
1.76289e-17
2.04456e-17
2.01404e-17
1.84566e-17
1.79852e-17
1.89151e-17
1.85846e-17
1.88643e-17
1.78342e-17
1.523e-17
1.72526e-17
1.91412e-17
1.90038e-17
1.67299e-17
1.72547e-17
1.84081e-17
1.90338e-17
1.75223e-17
1.69321e-17
1.74676e-17
1.62973e-17
1.94849e-17
2.08491e-17
1.86509e-17
1.72166e-17
1.69096e-17
1.80973e-17
1.87325e-17
1.79705e-17
1.92261e-17
1.68311e-17
1.88208e-17
1.68904e-17
1.92434e-17
1.7818e-17
1.8319e-17
1.84656e-17
1.57425e-17
1.75987e-17
1.90332e-17
1.70648e-17
1.71564e-17
1.7573e-17
1.72209e-17
1.81522e-17
1.65672e-17
1.79745e-17
1.84195e-17
1.65946e-17
1.84061e-17
1.82939e-17
1.77931e-17
1.92141e-17
1.67106e-17
1.77007e-17
1.89688e-17
1.69297e-17
1.9205e-17
1.81811e-17
1.60245e-17
1.53051e-17
1.83993e-17
1.86615e-17
1.92355e-17
1.90833e-17
1.97677e-17
1.65356e-17
1.88519e-17
1.86444e-17
1.94401e-17
1.99588e-17
1.81993e-17
1.67374e-17
1.85498e-17
1.82611e-17
1.81015e-17
1.95705e-17
1.76303e-17
1.92408e-17
1.77207e-17
1.98127e-17
1.88027e-17
2.00039e-17
1.8937e-17
1.83012e-17
1.97895e-17
1.88454e-17
1.83833e-17
1.81674e-17
1.75759e-17
1.83923e-17
1.80161e-17
1.65545e-17
1.70443e-17
1.76104e-17
1.79971e-17
1.78533e-17
1.932e-17
1.76111e-17
1.90779e-17
1.83249e-17
1.78075e-17
1.80806e-17
2.0229e-17
1.7466e-17
1.83916e-17
2.20898e-17
1.87681e-17
1.6775e-17
1.90028e-17
1.80942e-17
1.83621e-17
1.81174e-17
1.87261e-17
1.75484e-17
1.87262e-17
1.71091e-17
1.74568e-17
1.74725e-17
1.68176e-17
1.82639e-17
1.72185e-17
1.88585e-17
1.77896e-17
1.76134e-17
1.78873e-17
1.77488e-17
1.66752e-17
1.92839e-17
1.92373e-17
1.89489e-17
2.13409e-17
1.95693e-17
1.66138e-17
1.68534e-17
1.76321e-17
1.87012e-17
1.79127e-17
1.76585e-17
1.30558e-17
1.61038e-17
1.8323e-17
1.77628e-17
1.83334e-17
1.79542e-17
1.94527e-17
2.04886e-17
1.81296e-17
1.70906e-17
1.82789e-17
1.78098e-17
1.78648e-17
1.75828e-17
1.70083e-17
1.69836e-17
1.86876e-17
2.00659e-17
1.79974e-17
2.09966e-17
2.02945e-17
1.62589e-17
1.83227e-17
1.8501e-17
1.58843e-17
1.72441e-17
1.69488e-17
2.02266e-17
2.12717e-17
1.75409e-17
1.91553e-17
1.58541e-17
1.78305e-17
1.91439e-17
2.02991e-17
1.81404e-17
1.71456e-17
1.62267e-17
1.92859e-17
1.76809e-17
1.5874e-17
1.73835e-17
1.72894e-17
1.93458e-17
1.74835e-17
1.72742e-17
1.66398e-17
1.79061e-17
1.7635e-17
1.81665e-17
2.12559e-17
1.78639e-17
1.75231e-17
2.10055e-17
1.93933e-17
1.8071e-17
1.63879e-17
1.8481e-17
1.84727e-17
1.7705e-17
1.77578e-17
2.08507e-17
1.77291e-17
1.58852e-17
1.69125e-17
1.84503e-17
1.48685e-17
1.62407e-17
1.48301e-17
1.88634e-17
1.86756e-17
1.89404e-17
1.86123e-17
1.9059e-17
1.81721e-17
1.84647e-17
1.81082e-17
1.81044e-17
1.71183e-17
1.76898e-17
1.71616e-17
1.73097e-17
1.5645e-17
1.87722e-17
1.63441e-17
1.78779e-17
2.00025e-17
1.61135e-17
1.83667e-17
1.73198e-17
1.88843e-17
1.84284e-17
1.87055e-17
1.87259e-17
1.81091e-17
1.94684e-17
1.77977e-17
1.71101e-17
1.74119e-17
1.78875e-17
1.66891e-17
1.69254e-17
1.89441e-17
3.30506e-17
3.46086e-17
3.59795e-17
3.7389e-17
3.80023e-17
3.62533e-17
3.35987e-17
3.45377e-17
3.36693e-17
3.05329e-17
2.91771e-17
3.40675e-17
3.18715e-17
3.03037e-17
3.34267e-17
3.37803e-17
3.28574e-17
3.10945e-17
2.96698e-17
3.06926e-17
3.20373e-17
3.01202e-17
3.65894e-17
3.25647e-17
3.42492e-17
3.51328e-17
3.49349e-17
3.46798e-17
3.0564e-17
3.65528e-17
3.73371e-17
3.74956e-17
3.1331e-17
2.79777e-17
3.06131e-17
3.42626e-17
3.4258e-17
3.65034e-17
3.64816e-17
3.34482e-17
3.05687e-17
3.96178e-17
4.06544e-17
3.14371e-17
3.22112e-17
3.24578e-17
3.14355e-17
3.25021e-17
3.56171e-17
3.36554e-17
3.65984e-17
3.57722e-17
3.3159e-17
3.5405e-17
3.14189e-17
3.24316e-17
3.53181e-17
3.31922e-17
3.21009e-17
3.20758e-17
3.39095e-17
3.59038e-17
3.52726e-17
3.52549e-17
3.34232e-17
3.49222e-17
3.08066e-17
3.16611e-17
3.51615e-17
3.36584e-17
3.27205e-17
3.70267e-17
3.52175e-17
3.55802e-17
3.30341e-17
3.70018e-17
3.33832e-17
3.64314e-17
3.52916e-17
3.57766e-17
2.95508e-17
3.36398e-17
3.57498e-17
3.60007e-17
3.52473e-17
3.48609e-17
3.31079e-17
3.07255e-17
3.05348e-17
2.94768e-17
3.27001e-17
3.2655e-17
3.1586e-17
2.96943e-17
3.63042e-17
3.59862e-17
2.94258e-17
3.12476e-17
3.11213e-17
3.50986e-17
3.79038e-17
3.07618e-17
3.46573e-17
3.25529e-17
3.32651e-17
3.84786e-17
3.55368e-17
3.39243e-17
3.52061e-17
3.35484e-17
3.40089e-17
3.64809e-17
3.7474e-17
3.42528e-17
3.54833e-17
3.21555e-17
3.14615e-17
3.56361e-17
3.81409e-17
3.94838e-17
3.50749e-17
3.23899e-17
3.04469e-17
3.11981e-17
3.14538e-17
3.29651e-17
3.62869e-17
3.37764e-17
3.58845e-17
3.70994e-17
2.82681e-17
3.06064e-17
3.28191e-17
3.3425e-17
3.45612e-17
3.53772e-17
3.39058e-17
2.82888e-17
3.61524e-17
3.5805e-17
3.38548e-17
3.09159e-17
3.74291e-17
3.33885e-17
3.58007e-17
3.11943e-17
3.02012e-17
3.26255e-17
3.25347e-17
3.36002e-17
3.65563e-17
4.06633e-17
3.86445e-17
3.01299e-17
3.23969e-17
3.66637e-17
3.56293e-17
3.38842e-17
3.2262e-17
3.18828e-17
3.35909e-17
3.84638e-17
3.44671e-17
3.48699e-17
2.92365e-17
3.3192e-17
3.53488e-17
2.97246e-17
3.4986e-17
3.32114e-17
3.28597e-17
3.55939e-17
3.66927e-17
3.60341e-17
3.36151e-17
3.47177e-17
3.53134e-17
3.05296e-17
3.18757e-17
3.30687e-17
3.43132e-17
3.72818e-17
3.2405e-17
3.66787e-17
3.90842e-17
3.208e-17
3.23714e-17
3.54951e-17
4.10033e-17
3.61409e-17
3.31119e-17
3.61243e-17
3.30623e-17
3.35934e-17
3.41868e-17
3.5233e-17
3.50059e-17
2.86544e-17
3.64217e-17
3.44645e-17
3.58787e-17
3.5955e-17
3.47485e-17
3.9194e-17
3.38106e-17
3.39446e-17
3.47275e-17
3.71691e-17
3.24121e-17
3.00565e-17
3.60829e-17
3.39842e-17
3.22664e-17
3.20628e-17
3.58092e-17
2.9395e-17
3.03496e-17
3.25065e-17
3.59026e-17
3.58565e-17
3.33736e-17
3.41099e-17
3.21444e-17
3.25596e-17
3.36397e-17
3.44104e-17
3.54109e-17
3.67326e-17
3.62938e-17
3.57957e-17
3.42207e-17
3.58327e-17
3.82919e-17
3.17621e-17
3.55311e-17
3.44311e-17
3.20927e-17
2.96305e-17
3.33857e-17
3.09179e-17
2.90555e-17
3.40512e-17
3.60903e-17
3.40003e-17
3.38552e-17
3.57522e-17
3.46567e-17
3.25306e-17
3.47459e-17
2.93781e-17
3.20165e-17
3.22272e-17
3.42569e-17
2.84124e-17
3.3485e-17
3.67873e-17
6.70992e-17
6.05227e-17
5.80343e-17
6.1451e-17
6.9709e-17
6.36568e-17
6.44115e-17
5.68004e-17
5.67605e-17
5.62579e-17
6.42348e-17
6.65317e-17
6.44319e-17
5.62804e-17
6.31343e-17
7.33631e-17
6.56115e-17
6.50122e-17
6.09874e-17
6.22747e-17
5.9321e-17
6.66499e-17
6.13577e-17
6.85251e-17
6.76316e-17
6.75035e-17
6.48801e-17
6.21589e-17
5.76059e-17
5.40267e-17
6.0328e-17
6.01318e-17
5.99677e-17
6.35745e-17
7.09525e-17
7.15477e-17
6.06559e-17
6.75047e-17
5.98112e-17
6.3045e-17
6.5682e-17
7.11895e-17
6.81994e-17
6.12881e-17
6.01634e-17
6.48797e-17
6.70934e-17
6.2015e-17
7.33422e-17
7.41766e-17
5.60465e-17
6.62911e-17
6.56438e-17
6.95314e-17
6.51505e-17
7.03116e-17
7.28541e-17
6.21872e-17
6.6368e-17
6.45309e-17
5.84469e-17
5.61454e-17
6.71441e-17
6.43379e-17
5.9144e-17
6.44521e-17
7.02887e-17
6.90714e-17
6.33525e-17
6.48745e-17
6.46435e-17
6.52576e-17
6.35698e-17
5.57568e-17
5.9419e-17
6.52614e-17
6.65074e-17
5.3698e-17
5.16868e-17
5.77181e-17
4.99615e-17
5.69152e-17
6.83149e-17
6.49786e-17
5.74225e-17
5.76201e-17
6.20377e-17
6.06573e-17
5.8291e-17
6.14709e-17
6.31966e-17
6.04961e-17
6.19851e-17
6.37047e-17
6.3062e-17
6.46211e-17
6.73996e-17
6.32125e-17
5.75039e-17
5.55273e-17
6.25787e-17
6.01634e-17
5.73563e-17
6.82625e-17
6.00782e-17
6.65355e-17
6.08154e-17
6.64803e-17
6.00222e-17
5.63129e-17
6.35723e-17
6.48414e-17
6.28963e-17
6.40571e-17
6.17887e-17
6.19707e-17
6.60255e-17
6.53657e-17
5.77125e-17
6.70682e-17
6.00949e-17
5.90051e-17
6.47896e-17
5.84231e-17
6.9186e-17
5.97831e-17
6.26543e-17
6.30579e-17
6.37988e-17
6.77428e-17
6.63307e-17
7.03587e-17
5.75031e-17
6.77376e-17
6.21102e-17
6.42285e-17
6.05875e-17
5.91545e-17
5.99526e-17
5.91895e-17
6.3439e-17
6.39642e-17
6.80788e-17
5.57924e-17
6.34976e-17
6.34949e-17
6.06154e-17
6.10592e-17
5.87185e-17
6.85188e-17
6.81165e-17
5.81941e-17
6.26989e-17
6.43488e-17
6.71416e-17
6.70435e-17
5.773e-17
6.16073e-17
6.19261e-17
5.34664e-17
6.05669e-17
6.68738e-17
7.04144e-17
6.48347e-17
6.02674e-17
5.83563e-17
6.34053e-17
6.24686e-17
6.84761e-17
6.31785e-17
5.57251e-17
6.37517e-17
6.19363e-17
6.51865e-17
6.47444e-17
6.34338e-17
6.34564e-17
7.30326e-17
6.03759e-17
6.00674e-17
6.0025e-17
6.27229e-17
6.27113e-17
5.94176e-17
6.16435e-17
6.45949e-17
5.87311e-17
6.45611e-17
6.67044e-17
6.24975e-17
6.03145e-17
5.46345e-17
6.81895e-17
6.7936e-17
6.1188e-17
6.57824e-17
5.859e-17
6.06164e-17
6.5694e-17
6.57127e-17
6.85011e-17
6.56144e-17
6.16986e-17
6.31296e-17
6.18127e-17
5.89672e-17
5.97471e-17
6.75814e-17
6.45907e-17
6.30826e-17
6.38243e-17
6.59826e-17
6.06948e-17
5.70676e-17
6.03786e-17
6.03027e-17
6.33334e-17
6.74989e-17
6.17627e-17
6.58989e-17
6.40399e-17
6.36597e-17
5.50724e-17
6.00387e-17
5.98045e-17
6.17234e-17
6.37999e-17
6.75638e-17
5.76614e-17
5.91708e-17
6.11924e-17
6.10855e-17
6.4631e-17
5.84001e-17
6.43541e-17
7.08021e-17
5.60716e-17
5.92105e-17
5.98384e-17
5.72983e-17
5.56819e-17
6.54975e-17
6.33027e-17
6.71677e-17
6.3715e-17
6.39236e-17
6.00349e-17
6.02741e-17
6.07149e-17
6.73819e-17
6.82631e-17
7.16992e-17
6.73102e-17
5.99038e-17
6.40698e-17
6.2756e-17
1.16782e-16
1.10172e-16
1.19636e-16
1.06692e-16
1.22925e-16
1.12979e-16
1.1857e-16
1.10578e-16
1.08159e-16
1.23123e-16
1.40083e-16
1.18524e-16
1.11499e-16
1.10213e-16
1.18248e-16
9.65918e-17
1.20714e-16
1.12376e-16
1.04617e-16
1.10739e-16
1.14178e-16
1.10864e-16
1.07188e-16
1.17261e-16
1.21878e-16
1.19152e-16
1.27041e-16
1.3187e-16
1.09843e-16
1.00085e-16
1.17191e-16
1.31495e-16
1.38786e-16
1.20413e-16
1.18451e-16
1.14848e-16
1.06621e-16
1.10187e-16
1.16674e-16
1.10969e-16
1.12465e-16
1.23471e-16
1.16592e-16
1.20368e-16
1.26828e-16
1.22992e-16
1.1378e-16
1.12118e-16
1.00063e-16
1.18063e-16
1.15158e-16
1.21256e-16
1.17411e-16
1.24274e-16
1.22273e-16
1.33385e-16
1.26964e-16
1.31116e-16
1.23412e-16
1.18501e-16
1.22858e-16
1.16044e-16
1.27649e-16
1.12721e-16
1.06947e-16
1.04547e-16
1.22678e-16
1.2034e-16
1.20532e-16
1.08642e-16
1.19366e-16
1.14283e-16
1.28773e-16
1.18435e-16
1.18133e-16
1.26549e-16
1.43561e-16
1.26776e-16
1.08888e-16
1.24566e-16
1.1784e-16
1.13095e-16
1.36156e-16
1.36128e-16
1.20183e-16
1.08439e-16
1.25927e-16
1.10987e-16
1.25847e-16
1.19823e-16
1.12968e-16
1.19816e-16
1.30948e-16
1.21685e-16
1.38132e-16
1.06816e-16
1.16514e-16
1.3015e-16
1.17411e-16
1.0923e-16
1.28532e-16
1.25545e-16
1.29412e-16
1.29176e-16
1.15882e-16
1.18711e-16
1.15031e-16
1.21456e-16
1.13106e-16
1.22023e-16
1.12259e-16
1.23435e-16
1.0914e-16
1.07265e-16
1.12557e-16
1.19329e-16
1.2282e-16
1.1143e-16
9.12204e-17
9.05366e-17
1.04293e-16
1.19252e-16
1.19264e-16
1.39847e-16
1.35329e-16
1.11426e-16
1.11567e-16
1.17019e-16
1.0819e-16
1.26429e-16
1.11715e-16
1.21522e-16
1.20398e-16
1.26735e-16
1.18799e-16
9.9891e-17
1.09689e-16
1.1086e-16
1.19894e-16
1.09741e-16
1.16796e-16
1.17302e-16
1.13742e-16
1.14395e-16
1.26354e-16
1.26721e-16
1.09752e-16
1.1505e-16
1.24346e-16
1.1495e-16
1.10296e-16
1.08364e-16
1.24602e-16
1.14943e-16
1.12514e-16
1.17316e-16
1.20895e-16
1.20365e-16
1.29766e-16
1.22527e-16
1.13477e-16
1.21599e-16
1.15984e-16
1.14096e-16
1.23033e-16
1.15931e-16
1.13216e-16
1.26871e-16
1.18842e-16
1.25117e-16
1.18029e-16
1.29557e-16
1.06728e-16
1.1765e-16
1.09192e-16
1.22476e-16
1.30912e-16
1.21187e-16
1.3177e-16
1.20437e-16
1.33765e-16
1.27128e-16
1.0976e-16
1.14057e-16
1.30477e-16
1.08615e-16
1.31221e-16
1.14869e-16
1.16403e-16
1.2222e-16
1.15633e-16
1.07773e-16
1.24585e-16
1.16551e-16
1.19863e-16
1.11663e-16
1.22207e-16
1.20149e-16
1.03777e-16
1.07207e-16
1.17422e-16
1.22639e-16
1.16024e-16
1.2256e-16
1.18499e-16
1.15934e-16
1.15698e-16
1.131e-16
1.15122e-16
1.24017e-16
1.1335e-16
1.13442e-16
1.21163e-16
1.15353e-16
1.22599e-16
1.25772e-16
1.3073e-16
1.1315e-16
1.22007e-16
1.2905e-16
1.28476e-16
1.28617e-16
1.21092e-16
1.24775e-16
1.31981e-16
1.27391e-16
1.1471e-16
1.15053e-16
1.20431e-16
1.31488e-16
1.20715e-16
1.17903e-16
1.18524e-16
1.30922e-16
1.31626e-16
1.1798e-16
1.105e-16
1.21547e-16
1.2633e-16
1.19451e-16
9.8509e-17
1.14436e-16
1.24487e-16
1.33601e-16
1.21647e-16
1.3915e-16
1.20138e-16
1.28056e-16
1.14891e-16
1.23672e-16
1.27307e-16
1.15288e-16
1.13357e-16
1.07873e-16
1.23196e-16
1.12589e-16
2.54751e-16
2.22582e-16
2.17998e-16
2.20326e-16
2.12643e-16
2.49848e-16
2.25844e-16
2.1201e-16
2.26257e-16
2.17212e-16
2.17766e-16
2.19866e-16
2.13379e-16
1.99576e-16
2.15509e-16
2.00937e-16
2.27734e-16
2.09315e-16
2.12149e-16
2.0389e-16
2.26464e-16
2.13993e-16
2.16634e-16
2.30106e-16
2.2321e-16
2.39316e-16
2.19282e-16
2.04499e-16
2.05788e-16
1.98912e-16
2.3693e-16
2.24986e-16
2.36081e-16
2.2013e-16
2.16069e-16
2.26496e-16
2.12958e-16
2.39583e-16
2.29561e-16
2.28893e-16
2.07013e-16
2.18351e-16
2.21672e-16
2.38854e-16
2.4048e-16
2.16068e-16
2.10649e-16
2.07785e-16
2.15606e-16
2.4285e-16
2.06035e-16
2.2808e-16
2.43727e-16
2.39859e-16
2.2928e-16
2.08009e-16
2.12269e-16
2.27397e-16
2.50061e-16
2.3512e-16
2.4006e-16
2.52093e-16
2.01797e-16
2.00847e-16
2.12617e-16
2.17546e-16
2.31458e-16
2.155e-16
2.13631e-16
2.3183e-16
2.15271e-16
2.049e-16
2.05805e-16
2.38935e-16
2.22459e-16
1.91593e-16
2.41685e-16
2.65363e-16
2.7678e-16
2.2119e-16
2.35426e-16
2.15566e-16
2.03768e-16
2.09126e-16
2.22708e-16
1.98146e-16
1.90848e-16
2.0443e-16
1.99704e-16
2.20138e-16
2.27132e-16
2.48709e-16
2.23535e-16
1.99916e-16
2.3418e-16
2.07021e-16
2.30604e-16
2.46522e-16
2.3373e-16
2.17077e-16
2.37075e-16
2.24124e-16
2.34614e-16
2.16895e-16
2.33133e-16
2.40105e-16
2.3195e-16
1.96271e-16
2.08688e-16
2.31086e-16
2.24722e-16
2.47212e-16
2.3977e-16
2.17651e-16
2.17338e-16
2.39009e-16
2.21056e-16
1.9778e-16
2.10042e-16
2.05885e-16
2.06236e-16
2.11683e-16
1.99635e-16
2.32344e-16
2.11188e-16
2.01424e-16
2.13244e-16
2.21824e-16
2.06333e-16
2.13929e-16
2.10523e-16
2.11902e-16
2.10326e-16
2.17928e-16
2.20213e-16
2.01862e-16
2.25753e-16
2.35311e-16
2.25489e-16
2.15873e-16
2.21491e-16
2.22236e-16
2.18962e-16
1.97384e-16
2.35922e-16
2.53659e-16
2.48661e-16
2.46778e-16
2.30556e-16
2.46979e-16
2.24914e-16
2.04075e-16
2.42469e-16
2.02442e-16
2.21363e-16
2.31672e-16
2.20075e-16
1.94293e-16
2.1579e-16
2.17584e-16
2.32248e-16
2.46525e-16
2.42351e-16
2.14786e-16
2.13088e-16
1.97092e-16
2.17445e-16
2.07904e-16
2.11271e-16
2.14925e-16
2.15242e-16
2.24383e-16
2.26797e-16
1.9854e-16
2.09273e-16
2.29711e-16
2.24694e-16
2.31268e-16
2.64987e-16
2.34763e-16
2.37195e-16
2.28671e-16
1.94828e-16
2.06534e-16
2.43716e-16
2.43489e-16
2.2411e-16
2.37277e-16
2.35237e-16
2.2818e-16
2.19727e-16
2.17106e-16
2.28546e-16
1.93032e-16
2.29929e-16
2.20004e-16
2.12411e-16
2.32638e-16
2.31146e-16
2.05064e-16
2.10556e-16
2.17291e-16
2.02891e-16
2.10077e-16
1.94208e-16
2.19807e-16
2.15478e-16
2.2155e-16
2.16672e-16
2.2438e-16
2.31193e-16
2.09957e-16
1.97415e-16
2.03445e-16
2.08156e-16
2.37029e-16
2.05793e-16
2.29183e-16
2.49211e-16
2.27781e-16
2.20745e-16
2.30301e-16
2.51596e-16
2.15483e-16
2.10339e-16
2.23351e-16
2.18664e-16
2.18003e-16
2.14584e-16
2.21386e-16
2.49342e-16
2.36499e-16
2.20837e-16
2.02434e-16
2.26038e-16
2.26956e-16
2.14309e-16
2.271e-16
2.50978e-16
2.16411e-16
2.09475e-16
2.25097e-16
2.24211e-16
2.32164e-16
2.29528e-16
2.06641e-16
2.04521e-16
2.17335e-16
2.16955e-16
2.21799e-16
2.38042e-16
2.12216e-16
2.12825e-16
1.87656e-16
2.08918e-16
2.1032e-16
4.74391e-16
4.01088e-16
3.96001e-16
4.11516e-16
4.2811e-16
4.54007e-16
3.73459e-16
4.008e-16
3.99753e-16
4.08073e-16
4.46308e-16
4.33329e-16
3.28837e-16
4.55902e-16
4.42194e-16
4.06887e-16
5.26646e-16
4.07129e-16
3.89489e-16
4.17389e-16
4.17837e-16
3.84602e-16
4.18776e-16
4.25948e-16
4.40662e-16
4.56433e-16
4.02783e-16
3.97807e-16
4.29097e-16
4.19406e-16
4.51679e-16
4.17768e-16
3.91521e-16
4.06726e-16
4.24142e-16
4.50258e-16
4.17305e-16
4.2248e-16
4.29687e-16
4.06612e-16
4.43918e-16
3.82958e-16
4.14233e-16
3.79319e-16
4.81165e-16
4.36938e-16
4.51394e-16
3.83353e-16
3.98342e-16
4.36489e-16
4.57189e-16
4.70844e-16
4.65304e-16
3.95647e-16
4.09475e-16
4.35849e-16
3.8329e-16
4.01781e-16
3.91597e-16
4.27973e-16
4.14217e-16
4.05003e-16
4.02767e-16
4.22955e-16
3.91184e-16
3.44546e-16
4.05794e-16
4.65531e-16
4.08329e-16
4.0897e-16
3.86674e-16
4.39363e-16
4.09563e-16
4.3848e-16
3.87824e-16
3.85093e-16
4.01737e-16
4.15389e-16
4.68386e-16
4.26211e-16
4.07952e-16
3.93663e-16
4.18313e-16
4.22984e-16
3.81547e-16
4.15125e-16
4.79456e-16
4.1483e-16
3.69594e-16
4.06915e-16
3.8347e-16
3.98513e-16
3.7717e-16
4.10919e-16
4.15957e-16
3.77259e-16
4.43178e-16
3.97132e-16
4.03152e-16
3.63768e-16
4.166e-16
3.96605e-16
4.12603e-16
3.80314e-16
4.70304e-16
4.79019e-16
3.89352e-16
4.23026e-16
3.90521e-16
4.1729e-16
4.1748e-16
3.83173e-16
4.25795e-16
4.08654e-16
4.39521e-16
4.07179e-16
3.95121e-16
3.7377e-16
4.15656e-16
4.7291e-16
4.58072e-16
3.88671e-16
3.88776e-16
4.09285e-16
3.71172e-16
3.32495e-16
4.36284e-16
4.14296e-16
4.0397e-16
3.92922e-16
3.99662e-16
3.9633e-16
4.29725e-16
4.16149e-16
4.06126e-16
4.19848e-16
4.17465e-16
4.25446e-16
4.13391e-16
3.53875e-16
3.88925e-16
4.12898e-16
4.33305e-16
3.67482e-16
3.90882e-16
4.07122e-16
3.90856e-16
4.22804e-16
4.05495e-16
3.89797e-16
4.20131e-16
4.15856e-16
4.68115e-16
3.88274e-16
5.04758e-16
4.12265e-16
4.01015e-16
3.4542e-16
4.20119e-16
4.20594e-16
4.72296e-16
4.28127e-16
4.06484e-16
4.12044e-16
4.10556e-16
4.09269e-16
4.08835e-16
3.9751e-16
4.31608e-16
4.09746e-16
4.41832e-16
4.98219e-16
3.97744e-16
3.54015e-16
4.06174e-16
4.32783e-16
3.58265e-16
3.50209e-16
3.87787e-16
3.85239e-16
4.11883e-16
4.06677e-16
3.99082e-16
4.48248e-16
4.72607e-16
3.6897e-16
3.60234e-16
3.79139e-16
3.99448e-16
4.28878e-16
4.04575e-16
3.93067e-16
4.37832e-16
3.89478e-16
4.37398e-16
4.25286e-16
3.92154e-16
3.89001e-16
3.79967e-16
3.89769e-16
3.9297e-16
4.28638e-16