# vtk DataFile Version 1.0
Ion Density - Current Sheet
ASCII
DATASET STRUCTURED_POINTS
DIMENSIONS 256 128 1
ORIGIN 0 0 0
SPACING 0.15625 0.15625 1
POINT_DATA 32768
SCALARS rhoi float
LOOKUP_TABLE default
1.93866e-18
1.85841e-18
1.86036e-18
1.96902e-18
2.17862e-18
1.95823e-18
1.97204e-18
1.78881e-18
1.96005e-18
1.84533e-18
1.97953e-18
2.06561e-18
1.93863e-18
1.75828e-18
1.83642e-18
2.06186e-18
1.94098e-18
1.97618e-18
1.97213e-18
1.87352e-18
1.95788e-18
2.12822e-18
1.99877e-18
1.96016e-18
1.96404e-18
1.90618e-18
1.83665e-18
1.87353e-18
1.93172e-18
1.93774e-18
1.98089e-18
2.00324e-18
1.96376e-18
1.98486e-18
1.87168e-18
1.70109e-18
1.92119e-18
1.94967e-18
2.11233e-18
1.8712e-18
1.77703e-18
1.92133e-18
2.13585e-18
1.86767e-18
1.71861e-18
1.82628e-18
1.91407e-18
1.94298e-18
1.83143e-18
1.98332e-18
1.90464e-18
2.00949e-18
1.7296e-18
1.8921e-18
1.85848e-18
1.94136e-18
1.97746e-18
1.87081e-18
1.83998e-18
1.89217e-18
1.89909e-18
2.08306e-18
2.11184e-18
1.97904e-18
1.87117e-18
1.82412e-18
1.79009e-18
1.79441e-18
1.70437e-18
1.7444e-18
1.93684e-18
1.97588e-18
1.68179e-18
1.80085e-18
1.80234e-18
1.78159e-18
1.85462e-18
1.94556e-18
1.85116e-18
1.99473e-18
1.79329e-18
1.90958e-18
1.877e-18
1.72912e-18
2.04823e-18
1.92392e-18
1.71928e-18
1.99251e-18
1.87233e-18
1.91493e-18
1.7422e-18
1.66389e-18
1.72417e-18
2.11047e-18
2.12198e-18
2.05171e-18
2.00775e-18
1.81586e-18
1.83581e-18
1.97171e-18
1.71634e-18
1.83066e-18
1.68928e-18
1.77976e-18
1.90892e-18
1.84496e-18
1.77208e-18
1.85745e-18
1.90766e-18
1.70402e-18
1.83774e-18
1.85524e-18
2.05048e-18
1.8824e-18
2.1175e-18
1.86339e-18
1.84117e-18
1.79342e-18
1.81829e-18
1.73957e-18
1.82604e-18
1.96368e-18
1.76264e-18
1.87127e-18
2.05703e-18
1.83916e-18
2.00481e-18
1.92189e-18
1.85632e-18
1.80031e-18
1.83256e-18
1.6208e-18
2.24284e-18
1.9385e-18
1.73897e-18
2.04249e-18
1.88152e-18
1.90235e-18
2.01815e-18
2.11233e-18
1.80811e-18
1.85932e-18
1.78659e-18
1.86167e-18
2.13826e-18
1.81758e-18
1.71824e-18
2.11552e-18
1.7484e-18
1.96027e-18
1.92596e-18
1.8322e-18
1.84157e-18
1.79682e-18
1.93719e-18
2.0334e-18
2.08677e-18
1.81091e-18
1.82094e-18
2.09891e-18
1.86836e-18
1.99605e-18
1.89217e-18
1.60839e-18
2.0848e-18
1.95855e-18
1.82691e-18
2.14358e-18
1.94173e-18
1.93798e-18
1.82308e-18
1.82514e-18
1.96655e-18
1.80337e-18
1.90574e-18
1.96215e-18
1.87279e-18
1.7657e-18
1.85124e-18
1.96723e-18
1.81841e-18
2.02782e-18
2.18579e-18
1.74259e-18
1.81018e-18
1.78351e-18
2.02398e-18
1.85577e-18
2.07045e-18
1.87847e-18
1.91657e-18
1.85202e-18
1.72912e-18
2.01209e-18
1.99807e-18
1.91841e-18
1.81409e-18
1.81983e-18
1.92984e-18
2.00053e-18
1.96326e-18
1.91616e-18
1.89275e-18
1.94301e-18
1.90582e-18
1.97874e-18
1.84368e-18
1.75412e-18
1.74732e-18
1.8335e-18
1.8782e-18
1.97802e-18
1.94883e-18
1.85326e-18
1.85066e-18
1.81878e-18
1.98401e-18
2.2208e-18
1.94753e-18
2.0902e-18
1.91963e-18
1.80824e-18
1.64066e-18
1.66879e-18
1.81422e-18
1.96593e-18
1.92407e-18
1.80392e-18
1.80036e-18
1.89929e-18
1.78383e-18
1.84818e-18
1.94908e-18
2.13885e-18
1.67878e-18
2.0278e-18
1.79177e-18
1.94789e-18
1.83378e-18
1.94524e-18
1.71619e-18
1.86448e-18
1.76728e-18
1.98801e-18
2.01549e-18
2.11445e-18
1.96475e-18
1.97027e-18
2.35162e-18
1.75316e-18
1.92979e-18
1.70577e-18
1.92371e-18
1.84108e-18
1.76684e-18
1.72863e-18
2.49149e-18
2.71962e-18
2.70736e-18
2.40624e-18
2.63215e-18
2.97591e-18
2.84201e-18
2.67695e-18
2.85342e-18
2.9917e-18
2.90564e-18
2.95826e-18
2.91135e-18
2.64001e-18
2.61745e-18
2.58988e-18
2.70909e-18
2.99233e-18
2.85447e-18
2.80095e-18
2.75613e-18
2.66255e-18
2.53002e-18
2.95091e-18
2.71032e-18
3.0043e-18
2.92461e-18
2.79945e-18
2.7823e-18
2.86171e-18
2.97328e-18
2.57744e-18
2.67275e-18
2.86102e-18
2.96145e-18
2.73656e-18
2.82047e-18
2.81038e-18
3.013e-18
2.66726e-18
2.79718e-18
2.9327e-18
2.85123e-18
2.95196e-18
2.89825e-18
2.70251e-18
3.08689e-18
2.85799e-18
2.64465e-18
2.79794e-18
2.76619e-18
2.90537e-18
2.69459e-18
2.73944e-18
2.55866e-18
2.81136e-18
2.68371e-18
2.91762e-18
2.79987e-18
2.7804e-18
2.75422e-18
2.88386e-18
2.81251e-18
2.7297e-18
2.84806e-18
2.84031e-18
2.74826e-18
2.5845e-18
2.55986e-18
2.85841e-18
3.01871e-18
2.98597e-18
2.64996e-18
2.94823e-18
2.90583e-18
2.7722e-18
2.69859e-18
2.58814e-18
2.53265e-18
2.8347e-18
3.03219e-18
2.95804e-18
2.91208e-18
2.79327e-18
2.74361e-18
2.9031e-18
2.93653e-18
2.89153e-18
2.69222e-18
2.54917e-18
2.81077e-18
2.71523e-18
2.67519e-18
2.52699e-18
2.57505e-18
2.85485e-18
2.80262e-18
2.80078e-18
2.71877e-18
2.97815e-18
2.86386e-18
2.83782e-18
2.88255e-18
2.65162e-18
2.86215e-18
2.68905e-18
2.81555e-18
2.75444e-18
3.05254e-18
2.82965e-18
3.05251e-18
2.54357e-18
2.99456e-18
2.68328e-18
2.52282e-18
2.7847e-18
2.70144e-18
2.70762e-18
2.86784e-18
3.0732e-18
2.70401e-18
2.74516e-18
2.95032e-18
2.59631e-18
2.76608e-18
3.03548e-18
3.05401e-18
2.61851e-18
2.63567e-18
2.79541e-18
2.87683e-18
2.54898e-18
2.86773e-18
2.71865e-18
2.62129e-18
2.98786e-18
2.85262e-18
2.85585e-18
2.74136e-18
2.78887e-18
2.6179e-18
2.70715e-18
2.85561e-18
2.80713e-18
3.02248e-18
2.76597e-18
2.43644e-18
2.79018e-18
2.71749e-18
2.671e-18
2.66789e-18
2.67512e-18
2.98146e-18
3.07647e-18
2.97604e-18
2.95936e-18
2.79324e-18
2.82983e-18
2.75892e-18
2.84024e-18
2.73063e-18
2.83715e-18
2.81376e-18
2.58193e-18
2.85675e-18
2.9193e-18
2.77191e-18
2.72046e-18
2.56767e-18
2.56094e-18
2.83556e-18
2.64791e-18
2.84847e-18
2.71022e-18
2.81646e-18
2.97328e-18
2.61633e-18
2.84037e-18
2.76549e-18
2.81011e-18
2.78719e-18
2.89174e-18
2.70615e-18
2.92012e-18
2.82318e-18
2.73453e-18
2.72738e-18
2.70156e-18
2.79398e-18
2.9731e-18
3.16867e-18
2.75168e-18
2.84674e-18
2.73772e-18
2.64779e-18
2.94336e-18
2.89322e-18
2.86238e-18
2.82372e-18
2.97303e-18
2.72569e-18
3.02634e-18
2.69965e-18
2.87458e-18
2.73083e-18
3.01971e-18
2.81838e-18
2.78172e-18
2.97187e-18
2.72753e-18
2.70389e-18
3.03981e-18
2.51172e-18
2.78133e-18
2.77544e-18
2.74571e-18
2.75656e-18
2.77375e-18
2.66029e-18
2.88242e-18
2.60939e-18
2.62248e-18
2.79137e-18
2.70876e-18
2.60879e-18
2.6217e-18
2.78545e-18
2.76737e-18
2.76668e-18
3.0202e-18
2.50677e-18
2.73446e-18
2.56509e-18
3.01707e-18
2.74879e-18
2.60898e-18
2.6887e-18
2.92121e-18
2.98152e-18
2.84247e-18
2.87435e-18
2.90316e-18
2.9294e-18
2.81621e-18
2.45353e-18
2.79268e-18
2.5585e-18
2.62829e-18
3.01728e-18
2.79716e-18
2.86898e-18
3.03695e-18
2.85845e-18
2.76126e-18
2.6688e-18
2.66879e-18
5.57631e-18
4.69944e-18
5.32392e-18
5.048e-18
5.07856e-18
5.15502e-18
4.82521e-18
5.22493e-18
5.22698e-18
4.76148e-18
4.8109e-18
5.50951e-18
5.34696e-18
5.0037e-18
4.89167e-18
5.3254e-18
5.27867e-18
4.75306e-18
5.39261e-18
4.76637e-18
5.27313e-18
5.32114e-18
5.11966e-18
5.26375e-18
5.04051e-18
4.8839e-18
5.119e-18
4.99945e-18
5.29093e-18
4.9309e-18
5.01597e-18
5.01024e-18
5.30913e-18
4.84018e-18
5.09271e-18
5.48744e-18
5.13643e-18
5.10537e-18
5.24346e-18
4.95985e-18
5.25434e-18
5.16674e-18
5.29607e-18
5.1273e-18
4.87652e-18
5.16152e-18
5.44274e-18
5.20709e-18
4.98673e-18
5.13875e-18
4.9433e-18
4.87712e-18
5.48962e-18
5.22378e-18
5.17258e-18
5.03001e-18
5.08912e-18
5.64834e-18
5.22739e-18
5.08823e-18
5.06359e-18
5.38838e-18
5.335e-18
5.22653e-18
4.71966e-18
5.49552e-18
5.28813e-18
5.7096e-18
5.48806e-18
5.31437e-18
5.11211e-18
5.38485e-18
5.46113e-18
5.35771e-18
5.3917e-18
5.14807e-18
5.03577e-18
5.5279e-18
5.29726e-18
5.40152e-18
5.12725e-18
4.91675e-18
5.20998e-18
5.53084e-18
4.9298e-18
5.51734e-18
5.43445e-18
5.29119e-18
5.00778e-18
5.10236e-18
5.54436e-18
5.5512e-18
5.06631e-18
5.25654e-18
5.27818e-18
5.4038e-18
5.50471e-18
4.8388e-18
5.31851e-18
4.93327e-18
4.79184e-18
5.04068e-18
5.22351e-18
5.58928e-18
5.4355e-18
5.09882e-18
5.40993e-18
5.06188e-18
5.31185e-18
5.28341e-18
5.2161e-18
5.26025e-18
5.21656e-18
5.30945e-18
5.31672e-18
5.44651e-18
5.63193e-18
5.39892e-18
4.88169e-18
5.21742e-18
5.34044e-18
5.10351e-18
5.19893e-18
4.93615e-18
4.95367e-18
5.01486e-18
5.62568e-18
5.14156e-18
4.79077e-18
5.10522e-18
4.96543e-18
5.32946e-18
5.32518e-18
5.35882e-18
5.5862e-18
5.0438e-18
4.66386e-18
5.4535e-18
5.36713e-18
5.1165e-18
5.33282e-18
4.87194e-18
5.35493e-18
4.8861e-18
4.55405e-18
5.26365e-18
5.04497e-18
5.66401e-18
4.97762e-18
4.86014e-18
5.87591e-18
4.97763e-18
4.91182e-18
4.88382e-18
4.79232e-18
5.06825e-18
5.58448e-18
5.47315e-18
5.43423e-18
5.42322e-18
5.12555e-18
5.34022e-18
5.10597e-18
5.25355e-18
4.98268e-18
5.0044e-18
5.09934e-18
5.34091e-18
5.23321e-18
5.39088e-18
5.50583e-18
5.24253e-18
5.39534e-18
5.41098e-18
5.02749e-18
5.33005e-18
5.38325e-18
5.32925e-18
5.35614e-18
4.94095e-18
4.91417e-18
5.23265e-18
5.18192e-18
5.42133e-18
5.82198e-18
5.50585e-18
5.00391e-18
5.19275e-18
5.35719e-18
4.88253e-18
5.15085e-18
4.69969e-18
5.09779e-18
5.22143e-18
5.46764e-18
5.077e-18
5.57956e-18
5.02808e-18
4.37296e-18
5.09875e-18
5.30678e-18
5.1016e-18
5.5041e-18
5.51089e-18
5.77607e-18
5.01561e-18
5.43407e-18
5.47288e-18
5.35524e-18
5.07213e-18
4.98784e-18
5.02223e-18
5.29051e-18
5.25804e-18
5.47094e-18
5.22139e-18
5.0981e-18
5.24135e-18
5.07021e-18
5.13425e-18
5.12155e-18
5.58651e-18
5.469e-18
5.3742e-18
4.83344e-18
5.15759e-18
5.27932e-18
5.25868e-18
5.05569e-18
5.20211e-18
5.23069e-18
5.77862e-18
5.09956e-18
5.48143e-18
5.02909e-18
4.85605e-18
4.92214e-18
5.49883e-18
5.21965e-18
5.02528e-18
4.99661e-18
5.16059e-18
4.83118e-18
5.31761e-18
5.44568e-18
5.52229e-18
4.80904e-18
5.20877e-18
5.39747e-18
5.25374e-18
5.72738e-18
5.19461e-18
4.78648e-18
5.38911e-18
5.30741e-18
5.82233e-18
9.29415e-18
1.00288e-17
9.98199e-18
9.49492e-18
9.13408e-18
9.34769e-18
9.84348e-18
9.72772e-18
1.00493e-17
9.59625e-18
9.31357e-18
9.88031e-18
1.02782e-17
9.02842e-18
9.79031e-18
9.66316e-18
9.71682e-18
9.78137e-18
9.73542e-18
9.34929e-18
1.00679e-17
9.43884e-18
9.37773e-18
1.00604e-17
9.68076e-18
1.00057e-17
9.52033e-18
9.76224e-18
1.00406e-17
1.02214e-17
1.02535e-17
9.02523e-18
1.00122e-17
9.86834e-18
9.85575e-18
9.63919e-18
1.09574e-17
9.80881e-18
9.44306e-18
9.85777e-18
9.96318e-18
9.01202e-18
9.14234e-18
9.51281e-18
9.72882e-18
1.02044e-17
9.72021e-18
1.01098e-17
9.82809e-18
9.80208e-18
9.41283e-18
9.42843e-18
9.87799e-18
9.19426e-18
9.25242e-18
1.02091e-17
9.52923e-18
1.02929e-17
9.75784e-18
9.53799e-18
9.61036e-18
9.97319e-18
9.157e-18
1.04229e-17
9.17644e-18
9.58871e-18
1.01572e-17
1.01759e-17
8.75691e-18
1.00507e-17
9.88551e-18
1.01346e-17
9.50001e-18
9.54145e-18
8.95756e-18
9.66631e-18
9.6887e-18
9.45046e-18
1.05476e-17
9.96364e-18
8.76915e-18
9.85408e-18
9.92152e-18
9.47188e-18
9.04938e-18
1.00475e-17
9.9103e-18
1.00801e-17
9.75643e-18
9.42791e-18
1.0012e-17
9.23328e-18
9.90928e-18
9.82884e-18
9.20806e-18
9.16793e-18
9.75599e-18
9.62716e-18
9.66961e-18
9.74982e-18
9.43155e-18
9.28287e-18
9.97538e-18
9.60086e-18
9.17556e-18
8.88659e-18
9.98263e-18
9.37398e-18
1.00601e-17
9.82369e-18
9.59755e-18
9.85675e-18
1.0356e-17
9.42236e-18
9.72685e-18
1.096e-17
9.90484e-18
9.39069e-18
9.96963e-18
9.62493e-18
9.73689e-18
9.76492e-18
1.0397e-17
9.73742e-18
8.75235e-18
9.3376e-18
9.75047e-18
1.03464e-17
9.75588e-18
9.76306e-18
1.02223e-17
9.54817e-18
8.479e-18
9.70608e-18
1.00159e-17
1.00319e-17
9.52176e-18
9.13204e-18
9.96041e-18
9.78108e-18
9.10807e-18
9.11099e-18
9.97415e-18
9.85312e-18
9.77233e-18
1.03192e-17
9.37556e-18
9.22625e-18
9.86529e-18
9.46198e-18
9.47728e-18
9.48973e-18
9.73782e-18
9.95303e-18
8.96511e-18
9.57057e-18
9.18873e-18
9.15471e-18
9.8221e-18
1.0478e-17
9.13751e-18
9.69348e-18
9.18369e-18
8.95862e-18
1.01842e-17
1.06581e-17
9.86787e-18
9.49428e-18
9.50765e-18
9.67696e-18
9.80259e-18
1.03318e-17
9.85828e-18
9.41364e-18
9.59387e-18
9.84696e-18
1.0331e-17
9.91875e-18
9.8998e-18
1.10104e-17
9.83236e-18
9.2543e-18
8.53654e-18
9.71238e-18
9.27546e-18
9.32742e-18
1.00537e-17
9.47933e-18
1.02062e-17
8.84711e-18
9.40788e-18
1.00298e-17
9.48397e-18
9.68907e-18
1.02543e-17
9.53088e-18
9.66281e-18
9.70665e-18
9.6976e-18
9.42415e-18
1.07967e-17
9.84113e-18
9.81902e-18
9.50376e-18
9.83665e-18
8.85625e-18
1.00583e-17
9.76572e-18
9.32418e-18
9.82216e-18
9.99167e-18
9.56997e-18
9.46318e-18
1.00269e-17
9.51881e-18
9.39031e-18
9.21178e-18
9.11168e-18
8.96209e-18
9.92732e-18
9.39562e-18
1.02534e-17
9.7612e-18
9.14366e-18
9.51499e-18
9.99333e-18
9.29475e-18
9.08828e-18
1.04154e-17
9.8602e-18
8.5479e-18
9.31136e-18
9.47728e-18
9.86649e-18
9.62514e-18
8.51071e-18
9.95135e-18
9.75751e-18
9.40413e-18
1.04015e-17
1.02334e-17
9.30785e-18
9.46687e-18
9.82829e-18
9.71135e-18
9.38646e-18
1.01976e-17
1.01204e-17
8.74713e-18
9.22292e-18
9.74585e-18
9.74591e-18
1.00661e-17
9.87774e-18
1.03529e-17
9.17197e-18
1.86095e-17
1.98134e-17
1.66055e-17
1.81537e-17
1.88923e-17
1.83396e-17
1.83599e-17
1.88228e-17
1.79533e-17
1.7636e-17
1.68335e-17
1.85139e-17
1.94525e-17
1.75797e-17
1.85644e-17
1.85438e-17
1.8543e-17
1.98553e-17
1.8373e-17
1.88655e-17
1.88705e-17
1.79016e-17
1.76509e-17
1.7441e-17
1.81302e-17
1.93276e-17
1.88795e-17
1.81533e-17
1.8302e-17
1.99242e-17
1.63694e-17
1.76307e-17
1.82411e-17
1.79346e-17
1.7522e-17
1.80567e-17
1.8901e-17
1.90194e-17
1.76979e-17
1.64322e-17
1.84888e-17
1.84719e-17
1.81445e-17
1.85778e-17
1.67765e-17
1.98055e-17
1.84843e-17
1.83476e-17
1.75411e-17
2.02633e-17
1.8121e-17
1.82653e-17
1.77821e-17
1.73531e-17
1.90101e-17
1.82891e-17
1.7641e-17
1.86921e-17
1.9064e-17
1.7417e-17
1.85451e-17
1.8389e-17
1.78014e-17
1.90233e-17
1.84118e-17
1.82224e-17
1.73632e-17
1.83715e-17
1.75919e-17
1.85435e-17
1.70709e-17
1.75898e-17
1.79814e-17
1.79808e-17
1.7579e-17
1.77135e-17
1.74675e-17
1.84815e-17
1.84336e-17
1.82583e-17
1.71656e-17
1.67541e-17
1.82883e-17
1.93876e-17
1.79247e-17
1.77111e-17
1.77699e-17
1.88183e-17
1.95481e-17
1.86984e-17
1.80172e-17
1.76211e-17
1.74301e-17
1.84086e-17
1.81799e-17
1.91772e-17
1.95061e-17
1.95113e-17
1.81769e-17
1.8181e-17
1.82042e-17
1.76481e-17
1.90107e-17
1.78493e-17
1.86293e-17
1.84836e-17
1.74985e-17
1.71136e-17
1.81003e-17
1.73919e-17
1.70842e-17
1.93958e-17
1.80579e-17
1.73853e-17
1.84484e-17
1.82988e-17
1.80178e-17
1.8943e-17
1.89783e-17
1.83521e-17
2.06894e-17
1.93116e-17
1.76002e-17
1.94056e-17
1.83054e-17
1.7768e-17
1.78111e-17
1.74638e-17
1.73747e-17
1.75807e-17
1.80799e-17
2.01527e-17
1.61288e-17
1.85436e-17
1.74701e-17
1.82181e-17
1.89311e-17
1.75154e-17
1.69087e-17
1.81678e-17
1.84488e-17
1.85183e-17
1.86313e-17
1.9153e-17
1.92555e-17
1.97436e-17
1.79722e-17
1.82546e-17
1.88972e-17
1.80421e-17
1.79421e-17
1.77467e-17
1.78394e-17
1.69315e-17
1.67099e-17
1.74126e-17
1.88136e-17
1.97537e-17
1.82377e-17
1.80192e-17
1.5484e-17
2.03317e-17
1.97453e-17
1.84423e-17
1.89147e-17
1.70853e-17
1.92759e-17
1.76456e-17
1.83331e-17
1.91247e-17
1.8661e-17
1.83633e-17
1.87467e-17
1.83951e-17
1.76943e-17
1.7445e-17
1.78635e-17
1.62451e-17
1.59909e-17
1.78359e-17
2.01969e-17
2.00921e-17
1.90707e-17
1.78519e-17
1.79711e-17
1.67e-17
1.84128e-17
1.84969e-17
1.78414e-17
1.93139e-17
1.85728e-17
1.82785e-17
1.81563e-17
1.84458e-17
1.79593e-17
1.73228e-17
1.866e-17
1.66515e-17
1.72028e-17
1.81227e-17
1.78828e-17
1.81758e-17
1.91482e-17
1.84057e-17
1.80685e-17
1.63137e-17
1.88564e-17
1.78974e-17
1.72504e-17
1.76262e-17
1.90905e-17
1.83311e-17
1.77677e-17
1.89782e-17
1.87791e-17
1.77611e-17
1.75541e-17
1.84072e-17
1.83741e-17
1.76698e-17
1.63393e-17
1.78352e-17
1.79342e-17
1.86636e-17
1.83793e-17
1.7349e-17
1.8288e-17
1.91553e-17
1.75239e-17
1.8018e-17
1.79963e-17
1.70878e-17
1.708e-17
1.81269e-17
1.67652e-17
1.86727e-17
1.81954e-17
1.94046e-17
1.69041e-17
2.00296e-17
1.88877e-17
1.95174e-17
1.80819e-17
1.74852e-17
1.82307e-17
1.76821e-17
1.78948e-17
1.87246e-17
1.90029e-17
1.89337e-17
1.84282e-17
1.74349e-17
1.72887e-17
1.89993e-17
1.86753e-17
1.73298e-17
3.15253e-17
3.42236e-17
3.29356e-17
3.42342e-17
3.49229e-17
3.75493e-17
3.24006e-17
3.29771e-17
3.48168e-17
3.39632e-17
3.29054e-17
3.20901e-17
3.18973e-17
3.13719e-17
3.56615e-17
3.42683e-17
3.17569e-17
3.42591e-17
3.08488e-17
3.44809e-17
3.32391e-17
3.42236e-17
3.3942e-17
3.17314e-17
3.43442e-17
3.38104e-17
3.2546e-17
3.20981e-17
3.24099e-17
3.18435e-17
3.40276e-17
3.78064e-17
3.2595e-17
3.21633e-17
3.26784e-17
3.37386e-17
3.41569e-17
3.36797e-17
3.38191e-17
3.34356e-17
3.28603e-17
3.51684e-17
3.55552e-17
3.22326e-17
3.38596e-17
3.21792e-17
3.41542e-17
3.2616e-17
3.42374e-17
3.47484e-17
3.30915e-17
3.31424e-17
3.31442e-17
3.51063e-17
3.18146e-17
3.26519e-17
3.25557e-17
3.21496e-17
3.3134e-17
3.27776e-17
3.45646e-17
3.50229e-17
3.02527e-17
3.34212e-17
3.61276e-17
3.41998e-17
3.11498e-17
3.41648e-17
3.42535e-17
3.14082e-17
3.14174e-17
3.30036e-17
3.82934e-17
3.29054e-17
3.37349e-17
3.30945e-17
3.45886e-17
3.34154e-17
3.36611e-17
3.44337e-17
3.27616e-17
3.51413e-17
3.38097e-17
3.62313e-17
3.62788e-17
3.27038e-17
3.44041e-17
3.26384e-17
3.29553e-17
3.23567e-17
3.4632e-17
3.463e-17
3.428e-17
3.25288e-17
3.27305e-17
3.25697e-17
3.19879e-17
3.3769e-17
3.24328e-17
3.41644e-17
3.91433e-17
3.08099e-17
3.40373e-17
3.42842e-17
3.3006e-17
3.40882e-17
3.48572e-17
3.3473e-17
3.6112e-17
3.31809e-17
3.46034e-17
3.47013e-17
3.71693e-17
3.17297e-17
3.49229e-17
3.09012e-17
3.09949e-17
3.55787e-17
3.33532e-17
3.41083e-17
3.17447e-17
3.46469e-17
3.41736e-17
3.29311e-17
3.49888e-17
3.47657e-17
3.52535e-17
3.59795e-17
3.65931e-17
3.36429e-17
3.3946e-17
3.40765e-17
3.22231e-17
3.30184e-17
3.72121e-17
3.33201e-17
3.39861e-17
3.61011e-17
3.32553e-17
3.43786e-17
3.28897e-17
3.05395e-17
3.33126e-17
3.59066e-17
3.25309e-17
3.30281e-17
3.23771e-17
3.3716e-17
3.05965e-17
3.41023e-17
3.53516e-17
3.45199e-17
3.50645e-17
3.13869e-17
3.39762e-17
3.28004e-17
3.58933e-17
3.30092e-17
3.31401e-17
3.49559e-17
3.31744e-17
3.70523e-17
3.30616e-17
3.40277e-17
3.28411e-17
3.26606e-17
3.5018e-17
3.14759e-17
3.22229e-17
3.5122e-17
3.5657e-17
3.33319e-17
3.5894e-17
3.27923e-17
3.50406e-17
3.51003e-17
3.33139e-17
3.1827e-17
3.13167e-17
3.40397e-17
3.38857e-17
3.40243e-17
3.44101e-17
3.39513e-17
3.45643e-17
3.38377e-17
3.55602e-17
3.36248e-17
3.41574e-17
3.49692e-17
3.34533e-17
3.4807e-17
3.43761e-17
3.15892e-17
3.50007e-17
3.5496e-17
3.49061e-17
3.31805e-17
3.48765e-17
3.50318e-17
3.31689e-17
3.42661e-17
3.15636e-17
3.83849e-17
3.54517e-17
3.20662e-17
3.4857e-17
3.5962e-17
3.33437e-17
3.37574e-17
3.22599e-17
3.3995e-17
3.32067e-17
3.22142e-17
3.28958e-17
3.45763e-17
3.44716e-17
3.32568e-17
3.39981e-17
3.53035e-17
3.41553e-17
3.16594e-17
3.44549e-17
3.53316e-17
3.43922e-17
3.39346e-17
3.6666e-17
3.24648e-17
3.54053e-17
3.4838e-17
3.3557e-17
3.52351e-17
3.5501e-17
3.43743e-17
3.39327e-17
3.62129e-17
3.3343e-17
3.43635e-17
3.18707e-17
3.42195e-17
3.12793e-17
3.20103e-17
3.58178e-17
3.29035e-17
3.27197e-17
3.54391e-17
3.31194e-17
3.12345e-17
3.47302e-17
3.30503e-17
3.29146e-17
3.22487e-17
3.35983e-17
3.00512e-17
3.42456e-17
3.60582e-17
6.53665e-17
6.19652e-17
6.54331e-17
5.91255e-17
6.80357e-17
6.38836e-17
5.99433e-17
6.43385e-17
5.77797e-17
6.25904e-17
6.15292e-17
6.49739e-17
6.26173e-17
5.56949e-17
6.37813e-17
6.27072e-17
6.54209e-17
6.53864e-17
5.69338e-17
6.40458e-17
5.97363e-17
6.31706e-17
6.12946e-17
6.79441e-17
6.49295e-17
6.67488e-17
6.70495e-17
6.53244e-17
5.96261e-17
6.4892e-17
6.55722e-17
6.52693e-17
5.86042e-17
5.66912e-17
6.28751e-17
6.75662e-17
6.75501e-17
6.62712e-17
5.74661e-17
6.67071e-17
6.12473e-17
6.82428e-17
7.23216e-17
5.87845e-17
5.82615e-17
6.70713e-17
6.18824e-17
6.13908e-17
6.74006e-17
6.53996e-17
6.17687e-17
6.37413e-17
6.98205e-17
6.94282e-17
6.41503e-17
6.25736e-17
6.98169e-17
6.4745e-17
6.18336e-17
6.50469e-17
5.98019e-17
5.87328e-17
6.47152e-17
6.74863e-17
6.21507e-17
6.09199e-17
6.59784e-17
6.3862e-17
6.57834e-17
6.42053e-17
7.16246e-17
6.48786e-17
6.0589e-17
6.21894e-17
6.26931e-17
6.77753e-17
6.59094e-17
5.95127e-17
6.33909e-17
5.93101e-17
6.23744e-17
6.10281e-17
6.0003e-17
7.00966e-17
5.92073e-17
6.27601e-17
6.18121e-17
6.33729e-17
6.05427e-17
6.19266e-17
6.23778e-17
6.00202e-17
6.28977e-17
6.04399e-17
6.28521e-17
6.1667e-17
6.59325e-17
6.39254e-17
5.76162e-17
5.87714e-17
6.2489e-17
6.32776e-17
6.17016e-17
6.6274e-17
5.84451e-17
6.81853e-17
6.31126e-17
6.27235e-17
6.43799e-17
6.10256e-17
6.37045e-17
6.3781e-17
6.24497e-17
6.34682e-17
6.57238e-17
6.66194e-17
6.13706e-17
6.31297e-17
6.95998e-17
6.22881e-17
6.3954e-17
6.13472e-17
5.8286e-17
5.88542e-17
6.44343e-17
5.83687e-17
6.41214e-17
6.12834e-17
6.80117e-17
6.42032e-17
6.43064e-17
6.19219e-17
6.48334e-17
6.68516e-17
6.34195e-17
6.1591e-17
6.37031e-17
5.98276e-17
6.29415e-17
6.49632e-17
6.68038e-17
5.98467e-17
6.70715e-17
6.40514e-17
6.24149e-17
6.41509e-17
6.23022e-17
6.01613e-17
6.04775e-17
6.59654e-17
6.25109e-17
6.46278e-17
6.58375e-17
6.44029e-17
6.18598e-17
6.89512e-17
6.19495e-17
5.9832e-17
6.34023e-17
5.77051e-17
6.32683e-17
6.47109e-17
6.25896e-17
6.68891e-17
5.95929e-17
5.64588e-17
6.39689e-17
6.1968e-17
6.56645e-17
5.7197e-17
6.66053e-17
6.38794e-17
6.11822e-17
6.55012e-17
6.87016e-17
6.20183e-17
6.40468e-17
6.99968e-17
6.40182e-17
5.91264e-17
6.08909e-17
6.60498e-17
6.26981e-17
6.61781e-17
6.24827e-17
6.20228e-17
6.44222e-17
6.10165e-17
6.6533e-17
6.19338e-17
6.30339e-17
6.16781e-17
6.26918e-17
6.32951e-17
6.47193e-17
6.0557e-17
6.57447e-17
5.92386e-17
6.59394e-17
6.32413e-17
6.3103e-17
6.44923e-17
6.38275e-17
6.49494e-17
6.53276e-17
6.27726e-17
6.52339e-17
6.86001e-17
6.22041e-17
6.19384e-17
5.93788e-17
6.51824e-17
6.34366e-17
6.12311e-17
6.27083e-17
6.0773e-17
6.16917e-17
6.2743e-17
5.93122e-17
6.49035e-17
6.38579e-17
6.41325e-17
6.51049e-17
5.78506e-17
6.05185e-17
6.03552e-17
6.43504e-17
6.54181e-17
6.32654e-17
6.36363e-17
6.12889e-17
6.43111e-17
6.69596e-17
6.22269e-17
6.34931e-17
6.03847e-17
6.24243e-17
6.00141e-17
6.25289e-17
5.88214e-17
5.69888e-17
6.15582e-17
6.91018e-17
6.5783e-17
6.35312e-17
6.4049e-17
6.41253e-17
6.43841e-17
6.49171e-17
6.43057e-17
6.53627e-17
6.95508e-17
6.32176e-17
5.95731e-17
6.28662e-17
6.61483e-17
1.09654e-16
1.21626e-16
1.19102e-16
1.12207e-16
1.22235e-16
1.15568e-16
1.26466e-16
1.16347e-16
1.11878e-16
1.16813e-16
1.19845e-16
1.24027e-16
1.1828e-16
1.23018e-16
1.12019e-16
1.1451e-16
1.2773e-16
1.16652e-16
1.1797e-16
1.15013e-16
1.06318e-16
1.23164e-16
1.13762e-16
1.22045e-16
1.15327e-16
1.22864e-16
1.23155e-16
1.17914e-16
1.15259e-16
1.12462e-16
1.10061e-16
1.29539e-16
1.28749e-16
1.20326e-16
1.19453e-16
1.24254e-16
1.13094e-16
1.10526e-16
1.20498e-16
1.177e-16
1.1019e-16
1.19908e-16
1.1875e-16
1.26137e-16
1.20321e-16
1.17083e-16
1.16797e-16
1.11822e-16
1.22631e-16
1.16908e-16
1.11761e-16
1.17363e-16
1.16223e-16
1.13181e-16
1.20708e-16
1.24928e-16
1.21344e-16
1.17495e-16
1.15896e-16
1.23974e-16
1.16564e-16
1.25459e-16
1.15788e-16
1.19307e-16
1.07479e-16
1.10666e-16
1.20477e-16
1.26405e-16
1.08026e-16
1.1765e-16
1.21531e-16
1.17528e-16
1.19605e-16
1.18343e-16
1.20911e-16
1.15693e-16
1.23115e-16
1.15376e-16
1.12949e-16
1.19529e-16
1.15033e-16
1.21664e-16
1.14641e-16
1.24685e-16
1.25039e-16
1.08873e-16
1.16348e-16
1.17581e-16
1.17999e-16
1.22011e-16
1.18019e-16
1.17725e-16
1.28541e-16
1.17559e-16
1.23304e-16
1.2283e-16
1.11589e-16
1.28374e-16
1.22984e-16
1.10889e-16
1.20351e-16
1.17071e-16
1.22291e-16
1.20002e-16
1.17823e-16
1.14571e-16
1.19014e-16
1.16807e-16
1.15947e-16
1.15648e-16
1.17259e-16
1.12009e-16
1.0692e-16
1.17372e-16
1.07329e-16
1.26907e-16
1.21676e-16
1.08243e-16
1.14214e-16
1.00405e-16
1.23257e-16
1.25604e-16
1.1826e-16
1.18106e-16
1.22272e-16
1.23505e-16
1.15963e-16
1.17741e-16
1.19514e-16
1.09532e-16
1.18048e-16
1.16005e-16
1.1978e-16
1.17105e-16
1.16725e-16
1.18574e-16
9.98024e-17
1.18753e-16
1.18819e-16
1.1122e-16
1.15316e-16
1.20346e-16
1.22378e-16
1.12577e-16
1.23556e-16
1.21264e-16
1.15941e-16
1.20365e-16
1.21492e-16
1.21252e-16
1.12394e-16
1.18959e-16
1.25918e-16
1.22369e-16
1.09433e-16
1.29379e-16
1.27352e-16
1.15125e-16
1.25062e-16
1.16684e-16
1.13977e-16
1.12741e-16
1.21001e-16
1.1614e-16
1.25995e-16
1.16743e-16
1.23546e-16
1.1485e-16
1.19035e-16
1.18147e-16
1.22556e-16
1.16232e-16
1.17739e-16
1.09352e-16
1.15194e-16
1.17243e-16
1.20336e-16
1.25222e-16
1.1571e-16
1.21102e-16
1.2245e-16
1.22945e-16
1.12856e-16
1.12384e-16
1.15771e-16
1.18202e-16
1.15181e-16
1.10736e-16
1.23788e-16
1.20792e-16
1.11291e-16
1.1392e-16
1.21267e-16
1.14981e-16
1.15869e-16
1.11996e-16
1.12745e-16
1.19505e-16
1.15055e-16
1.11532e-16
1.26882e-16
1.21467e-16
1.20012e-16
1.23655e-16
1.09776e-16
1.16106e-16
1.21041e-16
1.08915e-16
1.14689e-16
1.20703e-16
1.16968e-16
1.22227e-16
1.18325e-16
1.12415e-16
1.16436e-16
1.21186e-16
1.2485e-16
1.23753e-16
1.10615e-16
1.20394e-16
1.21987e-16
1.18364e-16
1.11422e-16
1.1994e-16
1.27022e-16
1.27416e-16
1.14894e-16
1.24436e-16
1.16342e-16
1.2002e-16
1.1468e-16
1.09318e-16
1.21328e-16
1.21206e-16
1.19072e-16
1.16971e-16
1.19017e-16
1.15075e-16
1.11272e-16
1.13293e-16
1.20112e-16
1.14036e-16
1.14334e-16
1.24679e-16
1.1769e-16
1.20373e-16
1.25781e-16
1.11143e-16
1.12849e-16
1.0963e-16
1.20097e-16
1.23191e-16
1.22643e-16
1.1842e-16
1.18501e-16
1.15032e-16
2.34529e-16
2.19104e-16
2.12056e-16
2.22081e-16
2.12341e-16
2.14897e-16
2.12064e-16
2.21339e-16
2.06183e-16
2.29489e-16
2.23916e-16
2.34677e-16
2.27536e-16
2.2056e-16
2.08771e-16
2.08261e-16
2.08778e-16
2.26635e-16
2.20441e-16
2.05222e-16
2.22488e-16
2.23501e-16
2.07672e-16
2.19451e-16
2.22416e-16
2.15586e-16
2.22266e-16
2.18928e-16
2.08958e-16
2.05195e-16
2.17742e-16
2.30184e-16
2.2615e-16
2.1893e-16
2.11205e-16
2.16373e-16
2.08821e-16
2.19882e-16
2.17369e-16
2.07775e-16
2.05601e-16
2.18644e-16
2.19487e-16
2.17492e-16
2.25231e-16
2.29112e-16
2.26424e-16
2.06097e-16
2.12277e-16
2.31961e-16
2.0764e-16
2.31386e-16
2.20811e-16
2.39011e-16
2.32232e-16
2.18868e-16
2.19909e-16
2.25141e-16
2.13298e-16
2.22896e-16
2.47241e-16
2.2505e-16
2.19758e-16
2.22373e-16
2.2866e-16
2.25768e-16
2.18548e-16
2.17873e-16
2.1764e-16
2.26294e-16
2.19696e-16
2.18702e-16
2.07362e-16
2.31539e-16
2.17515e-16
2.1199e-16
2.29957e-16
2.43595e-16
2.26421e-16
2.3727e-16
2.20748e-16
2.29937e-16
2.17192e-16
2.16812e-16
2.19389e-16
2.11818e-16
2.24063e-16
2.09329e-16
2.0843e-16
2.29724e-16
2.30441e-16
2.20201e-16
2.28795e-16
2.28105e-16
2.34228e-16
2.17605e-16
2.16311e-16
2.29175e-16
2.31007e-16
2.35159e-16
2.29138e-16
2.28858e-16
2.34039e-16
2.15287e-16
2.29649e-16
2.33103e-16
2.33327e-16
2.18284e-16
2.08324e-16
2.14463e-16
2.39212e-16
2.2039e-16
2.3312e-16
2.23081e-16
2.25809e-16
2.1939e-16
2.18319e-16
2.08293e-16
2.24045e-16
1.97565e-16
2.32585e-16
2.05469e-16
2.33404e-16
2.36724e-16
2.33371e-16
2.04497e-16
2.27198e-16
2.21308e-16
2.26875e-16
2.10182e-16
2.15987e-16
2.16886e-16
2.20788e-16
2.13789e-16
2.16333e-16
2.03682e-16
2.42881e-16
2.20452e-16
2.21208e-16
2.14156e-16
2.2925e-16
2.17857e-16
2.20098e-16
2.21573e-16
2.21729e-16
2.27378e-16
2.21418e-16
2.09988e-16
2.42517e-16
2.38481e-16
2.07828e-16
1.99724e-16
2.2931e-16
1.99197e-16
2.11951e-16
2.16933e-16
2.13566e-16
2.1679e-16
2.1818e-16
2.24497e-16
2.32868e-16
2.43098e-16
2.25479e-16
2.0978e-16
2.12008e-16
2.12023e-16
2.24862e-16
2.08691e-16
2.12516e-16
2.27966e-16
2.0569e-16
2.34771e-16
2.24921e-16
2.18097e-16
2.22784e-16
2.35045e-16
2.12936e-16
2.30349e-16
2.27483e-16
2.19779e-16
2.45648e-16
2.30446e-16
2.0334e-16
2.18911e-16
2.3706e-16
2.16657e-16
2.30857e-16
2.15936e-16
2.29769e-16
2.34017e-16
2.15033e-16
2.21812e-16
2.28922e-16
2.14407e-16
2.17096e-16
2.24511e-16
2.14843e-16
2.29183e-16
2.19937e-16
2.17771e-16
2.04896e-16
2.1456e-16
2.08144e-16
2.15726e-16
2.15667e-16
2.15643e-16
2.35547e-16
2.11606e-16
2.25162e-16
2.36251e-16
2.18126e-16
2.29054e-16
2.15218e-16
2.14116e-16
2.33268e-16
1.98046e-16
2.23302e-16
2.1591e-16
2.19003e-16
2.44052e-16
2.20855e-16
2.3478e-16
2.26582e-16
2.45269e-16
2.17923e-16
2.15157e-16
2.21326e-16
2.19057e-16
2.23488e-16
2.22614e-16
2.42924e-16
2.44434e-16
2.2157e-16
2.23949e-16
2.21433e-16
2.32443e-16
2.218e-16
2.42726e-16
2.2757e-16
2.23375e-16
2.24563e-16
2.25356e-16
2.2498e-16
2.27886e-16
2.19624e-16
2.15323e-16
2.1921e-16
2.30602e-16
2.30097e-16
2.17035e-16
2.28689e-16
2.1691e-16
1.97543e-16
2.0301e-16
2.19818e-16
2.13367e-16
4.17389e-16
4.01568e-16
4.51756e-16
4.32249e-16
4.2682e-16
4.24079e-16
3.93738e-16
4.30413e-16
4.31423e-16
3.88088e-16
4.15894e-16
4.03045e-16
3.85093e-16
4.14354e-16
4.07735e-16
3.87914e-16
4.48266e-16
3.90465e-16
3.73878e-16
4.31821e-16
4.04626e-16
3.98243e-16
4.01931e-16
4.42588e-16
4.17358e-16
4.33567e-16
4.2095e-16
3.9794e-16
3.971e-16
4.3577e-16
4.2143e-16
4.23061e-16
3.83122e-16
4.09484e-16
4.1353e-16
4.30229e-16
4.11533e-16
4.21258e-16
4.39839e-16
4.43581e-16
4.53726e-16
3.86975e-16
4.02399e-16
4.22966e-16
4.12422e-16
4.1573e-16
4.13372e-16
4.20213e-16
4.16948e-16
4.12933e-16
4.15865e-16
4.38361e-16
4.48685e-16
4.18785e-16
4.0561e-16
3.71726e-16
3.99283e-16
4.13919e-16
4.06823e-16
4.11182e-16
4.42668e-16
3.86954e-16
3.74009e-16
4.16484e-16
4.0445e-16
3.84214e-16
4.04779e-16
4.12573e-16
4.07915e-16
4.37375e-16
4.09927e-16
3.95656e-16
4.10876e-16
4.16302e-16
4.19935e-16
4.04663e-16
4.07017e-16
4.29753e-16
4.14458e-16
4.24793e-16
4.06897e-16
4.10518e-16
3.9824e-16
4.13938e-16
4.13928e-16
4.07757e-16
4.25326e-16
4.23905e-16
3.83403e-16
3.75106e-16
3.73721e-16
4.21932e-16
4.12608e-16
3.84639e-16
4.29065e-16
3.96816e-16
4.23238e-16
4.13202e-16
3.98823e-16
3.85868e-16
3.88373e-16
4.0649e-16
4.23919e-16
3.83422e-16
4.05284e-16
4.42653e-16
4.15207e-16
4.09971e-16
4.24724e-16
4.15766e-16
4.0842e-16
3.96345e-16
4.23712e-16
4.53327e-16
3.98959e-16
3.94343e-16
4.02583e-16
4.02193e-16
4.49702e-16
4.10092e-16
4.27607e-16
3.87615e-16
3.96399e-16
4.00214e-16
4.09575e-16
3.82941e-16
3.94813e-16
3.88925e-16
3.92137e-16
4.23933e-16
4.32066e-16
4.38513e-16
3.66442e-16
4.0088e-16
4.19572e-16
4.08861e-16
4.10706e-16
4.28238e-16
4.05945e-16
3.92534e-16
4.02488e-16
4.12202e-16
4.11783e-16
3.88223e-16
3.78806e-16
4.3265e-16
4.18565e-16
4.04772e-16
4.15694e-16
4.04924e-16
4.02796e-16
4.41754e-16
4.08335e-16
4.07802e-16
4.16858e-16
4.57785e-16
4.4099e-16
3.83275e-16
3.98646e-16
4.09138e-16
4.12565e-16
4.05355e-16
4.10931e-16
4.13723e-16
4.31251e-16
3.96179e-16
4.1751e-16
4.08482e-16
4.37854e-16
4.14007e-16
4.15735e-16
4.15809e-16
3.98699e-16
3.92289e-16
3.62623e-16
4.22169e-16
4.08307e-16
4.15106e-16
4.3002e-16
3.90538e-16
4.17739e-16
3.94819e-16
4.04331e-16
4.29946e-16
4.17823e-16
4.2946e-16
4.09395e-16
3.83112e-16
4.08618e-16
4.45038e-16
3.84123e-16
4.27608e-16
4.34036e-16
4.14255e-16
4.20314e-16
4.32299e-16
3.94691e-16
4.06899e-16
4.17656e-16
4.17977e-16
4.07302e-16