# vtk DataFile Version 1.0
Ion Density - Current Sheet
ASCII
DATASET STRUCTURED_POINTS
DIMENSIONS 256 128 1
ORIGIN 0 0 0
SPACING 0.15625 0.15625 1
POINT_DATA 32768
SCALARS rhoi float
LOOKUP_TABLE default
1.77034e-18
1.66894e-18
1.58407e-18
1.70885e-18
2.09232e-18
2.01524e-18
1.92206e-18
1.8868e-18
1.9283e-18
1.98959e-18
1.94148e-18
2.12976e-18
1.93115e-18
1.4715e-18
1.54142e-18
1.75794e-18
1.90538e-18
2.17295e-18
1.88296e-18
1.70831e-18
1.88333e-18
1.97185e-18
2.09953e-18
1.88706e-18
1.82244e-18
2.09194e-18
1.93862e-18
1.71819e-18
1.66968e-18
2.05411e-18
2.08419e-18
1.67321e-18
1.89406e-18
2.05212e-18
1.86528e-18
1.71685e-18
1.79667e-18
2.10381e-18
2.21673e-18
1.60842e-18
1.65768e-18
1.95697e-18
2.11292e-18
1.83038e-18
1.66862e-18
1.6691e-18
1.93793e-18
2.04167e-18
1.78197e-18
1.73006e-18
1.85249e-18
2.10105e-18
1.78265e-18
1.71824e-18
1.78867e-18
1.95215e-18
1.71355e-18
1.75608e-18
1.66496e-18
1.88483e-18
1.95592e-18
2.15209e-18
1.99618e-18
1.99489e-18
2.09822e-18
1.7516e-18
1.57906e-18
1.76609e-18
1.67352e-18
1.79196e-18
2.04944e-18
2.15766e-18
1.5131e-18
1.60351e-18
1.62237e-18
1.61933e-18
1.69719e-18
1.79677e-18
1.68266e-18
2.01416e-18
1.87779e-18
2.13984e-18
1.97246e-18
1.65942e-18
2.26886e-18
1.97987e-18
1.72854e-18
1.74677e-18
1.79218e-18
1.65122e-18
1.63871e-18
1.41177e-18
1.58947e-18
1.92203e-18
1.80119e-18
1.86671e-18
1.89973e-18
1.91132e-18
1.79389e-18
1.75266e-18
1.82575e-18
1.8896e-18
1.47126e-18
1.63679e-18
1.83665e-18
1.83922e-18
1.7119e-18
1.95397e-18
2.06306e-18
1.59229e-18
1.85079e-18
1.89366e-18
2.14733e-18
1.88981e-18
1.95113e-18
1.80999e-18
1.73625e-18
1.76937e-18
1.8198e-18
1.88184e-18
1.57055e-18
1.95861e-18
1.70237e-18
1.84175e-18
2.27335e-18
1.95133e-18
1.83274e-18
1.8281e-18
1.62714e-18
1.80286e-18
1.81538e-18
1.62293e-18
1.93542e-18
2.13854e-18
1.72008e-18
2.10761e-18
1.9741e-18
1.91656e-18
1.91016e-18
2.07524e-18
1.6071e-18
1.7538e-18
1.6201e-18
1.79029e-18
2.17183e-18
1.80116e-18
1.59646e-18
1.88916e-18
1.75698e-18
1.73567e-18
1.95569e-18
1.74532e-18
1.94207e-18
1.99535e-18
2.21321e-18
2.09744e-18
2.22815e-18
1.7865e-18
1.88619e-18
1.9908e-18
1.72899e-18
1.84407e-18
1.90306e-18
1.30789e-18
1.84936e-18
2.00587e-18
1.72691e-18
2.14424e-18
1.70718e-18
1.50752e-18
1.70095e-18
1.90279e-18
1.71106e-18
1.55758e-18
1.89066e-18
1.92303e-18
1.76859e-18
1.92197e-18
1.94215e-18
1.97467e-18
1.79018e-18
2.04508e-18
2.12129e-18
1.81545e-18
1.82936e-18
1.75966e-18
1.87373e-18
1.90463e-18
2.00396e-18
2.00104e-18
1.85762e-18
2.19786e-18
1.95882e-18
1.86641e-18
1.77583e-18
2.02448e-18
1.89695e-18
1.96867e-18
1.66845e-18
2.21327e-18
1.87818e-18
1.79591e-18
1.84227e-18
1.99758e-18
1.95544e-18
2.20978e-18
1.90498e-18
1.62647e-18
1.53686e-18
1.54448e-18
1.76626e-18
2.15271e-18
1.8295e-18
2.06303e-18
1.87434e-18
1.90216e-18
1.95748e-18
2.25525e-18
2.04037e-18
2.13937e-18
1.79093e-18
1.53694e-18
1.47006e-18
1.49068e-18
1.65037e-18
1.87593e-18
1.88002e-18
1.62272e-18
1.84604e-18
1.78543e-18
1.64082e-18
1.46607e-18
1.86245e-18
2.04786e-18
1.61282e-18
1.75671e-18
1.88465e-18
1.79357e-18
1.82453e-18
1.67752e-18
1.72681e-18
1.76581e-18
1.82316e-18
1.92636e-18
1.51294e-18
2.23787e-18
1.85225e-18
1.96716e-18
2.4339e-18
1.89268e-18
1.45925e-18
1.74254e-18
2.09165e-18
1.60223e-18
1.41982e-18
1.49013e-18
2.54112e-18
2.60916e-18
2.53568e-18
2.53738e-18
2.56918e-18
2.88614e-18
2.78609e-18
2.58103e-18
2.6456e-18
2.8551e-18
2.82031e-18
3.03947e-18
3.09624e-18
2.68871e-18
2.67736e-18
2.60125e-18
2.93674e-18
2.7829e-18
2.71609e-18
2.75103e-18
2.84023e-18
2.76946e-18
2.89473e-18
2.89547e-18
2.96005e-18
2.95356e-18
3.10033e-18
2.70344e-18
3.04945e-18
2.99048e-18
2.87614e-18
2.70044e-18
2.69864e-18
2.63669e-18
2.80816e-18
2.81484e-18
2.92874e-18
2.67528e-18
2.99108e-18
2.93594e-18
2.78941e-18
2.92316e-18
2.98522e-18
2.65269e-18
2.88905e-18
2.72388e-18
3.15388e-18
2.96476e-18
2.6735e-18
3.03513e-18
2.81697e-18
2.709e-18
2.86706e-18
2.60153e-18
2.53852e-18
2.80334e-18
2.94764e-18
2.97426e-18
2.87759e-18
2.77133e-18
2.88379e-18
2.86163e-18
2.89295e-18
2.6955e-18
2.63739e-18
2.81243e-18
2.59663e-18
2.37938e-18
2.42292e-18
2.78945e-18
2.93634e-18
2.83863e-18
2.82873e-18
3.01649e-18
2.8994e-18
2.81725e-18
2.51877e-18
2.72821e-18
2.84931e-18
2.72446e-18
2.916e-18
3.10123e-18
2.85592e-18
2.72447e-18
2.7779e-18
2.93758e-18
2.98649e-18
2.96561e-18
2.784e-18
2.53203e-18
2.79585e-18
2.65134e-18
2.7366e-18
2.5139e-18
2.68766e-18
3.08913e-18
2.9863e-18
2.74344e-18
2.79712e-18
2.91425e-18
2.71673e-18
2.73267e-18
2.79933e-18
2.84385e-18
2.97144e-18
2.65537e-18
2.84188e-18
2.64135e-18
2.94265e-18
2.7843e-18
2.97361e-18
2.62908e-18
2.99653e-18
2.60776e-18
2.59921e-18
2.85605e-18
2.67688e-18
2.76465e-18
2.80068e-18
2.79176e-18
2.79929e-18
2.81562e-18
2.93424e-18
2.39876e-18
2.61862e-18
2.85372e-18
3.02082e-18
2.72249e-18
2.25832e-18
2.76773e-18
2.73626e-18
2.38356e-18
2.80854e-18
2.94047e-18
2.75626e-18
2.88738e-18
2.58015e-18
3.02953e-18
2.86194e-18
2.6837e-18
2.63413e-18
2.73374e-18
2.73711e-18
2.77934e-18
2.97408e-18
2.87425e-18
2.39322e-18
2.78802e-18
2.7582e-18
2.70223e-18
2.78533e-18
2.63664e-18
2.90854e-18
3.13575e-18
2.96337e-18
2.84209e-18
2.7592e-18
2.75542e-18
2.90461e-18
3.01987e-18
2.75774e-18
2.90784e-18
2.7995e-18
2.6965e-18
2.832e-18
2.95522e-18
2.84971e-18
2.86405e-18
2.41312e-18
2.78518e-18
2.79517e-18
2.61095e-18
2.808e-18
2.74364e-18
2.81937e-18
2.89355e-18
2.53639e-18
2.71618e-18
2.81352e-18
2.71188e-18
2.66424e-18
2.92208e-18
2.91665e-18
2.76539e-18
3.10341e-18
2.71908e-18
2.59041e-18
2.62264e-18
2.88884e-18
3.09133e-18
3.04381e-18
2.68721e-18
2.50309e-18
2.65611e-18
2.59297e-18
2.98286e-18
3.02084e-18
2.77427e-18
2.72322e-18
2.70988e-18
2.95285e-18
2.78802e-18
2.77275e-18
3.07308e-18
3.07051e-18
3.05276e-18
2.78246e-18
2.80787e-18
3.10049e-18
2.78226e-18
2.61927e-18
2.9164e-18
2.8579e-18
2.66558e-18
2.69101e-18
2.56453e-18
2.79644e-18
2.74349e-18
2.76838e-18
2.81651e-18
2.57662e-18
2.8913e-18
2.66491e-18
2.55874e-18
2.56744e-18
2.693e-18
2.76112e-18
2.77572e-18
2.89667e-18
2.90566e-18
2.70431e-18
2.74737e-18
2.84303e-18
3.19093e-18
2.71873e-18
2.56261e-18
2.70959e-18
2.92737e-18
3.14864e-18
2.92652e-18
2.7537e-18
3.25752e-18
2.97888e-18
2.79455e-18
2.62961e-18
2.81806e-18
2.43178e-18
2.69618e-18
2.90954e-18
2.82899e-18
3.12135e-18
3.2329e-18
2.70237e-18
2.69656e-18
2.85392e-18
2.79779e-18
5.69798e-18
4.46622e-18
5.55701e-18
4.53206e-18
4.83183e-18
5.26949e-18
4.75697e-18
5.25685e-18
5.46437e-18
4.96818e-18
4.82841e-18
5.28871e-18
5.30789e-18
5.00039e-18
5.15587e-18
5.06632e-18
5.42977e-18
5.02997e-18
5.18856e-18
4.60833e-18
5.19509e-18
4.88203e-18
5.38427e-18
4.85668e-18
5.08387e-18
4.58107e-18
4.98575e-18
4.90305e-18
4.95377e-18
4.64286e-18
5.15361e-18
4.9784e-18
5.14338e-18
4.95763e-18
5.19499e-18
5.71303e-18
5.51378e-18
5.10434e-18
4.91113e-18
5.11441e-18
5.35925e-18
4.79142e-18
5.57059e-18
5.22486e-18
5.16158e-18
4.99164e-18
5.56327e-18
5.4872e-18
4.98997e-18
5.08723e-18
4.58855e-18
4.6091e-18
5.46861e-18
5.10916e-18
5.45451e-18
5.01426e-18
5.11959e-18
5.92743e-18
5.41354e-18
5.49064e-18
5.0689e-18
5.27965e-18
5.73731e-18
5.20354e-18
5.15753e-18
5.09139e-18
5.93933e-18
5.99672e-18
5.24782e-18
5.60761e-18
5.29251e-18
5.51798e-18
5.94257e-18
5.71506e-18
5.15775e-18
5.15177e-18
5.34721e-18
5.9097e-18
4.76933e-18
5.27408e-18
5.23626e-18
4.85062e-18
5.06265e-18
5.8117e-18
4.93071e-18
5.58487e-18
5.41093e-18
5.25653e-18
5.1395e-18
5.10383e-18
5.49676e-18
5.13224e-18
4.89497e-18
5.58674e-18
5.31368e-18
5.0474e-18
5.36434e-18
5.04354e-18
5.11214e-18
4.97467e-18
4.66226e-18
5.04705e-18
5.08062e-18
5.45411e-18
5.18217e-18
4.70259e-18
5.41546e-18
5.30819e-18
5.07849e-18
5.51674e-18
5.45072e-18
5.05107e-18
4.91258e-18
5.21994e-18
5.88811e-18
5.71388e-18
5.50876e-18
5.60042e-18
5.5028e-18
5.5787e-18
5.3398e-18
4.895e-18
5.62729e-18
5.14738e-18
4.7528e-18
4.89436e-18
5.91708e-18
5.35642e-18
5.05812e-18
5.23851e-18
5.11286e-18
5.58134e-18
4.953e-18
5.50113e-18
5.4854e-18
5.00159e-18
4.6262e-18
5.13965e-18
5.59658e-18
5.38275e-18
4.95267e-18
4.98755e-18
5.40543e-18
5.10832e-18
4.51402e-18
5.48467e-18
4.89206e-18
5.24074e-18
4.94234e-18
4.80697e-18
5.31644e-18
4.73314e-18
4.97572e-18
4.84239e-18
4.81803e-18
4.9657e-18
5.55608e-18
5.60914e-18
5.65548e-18
5.30153e-18
5.15686e-18
5.27451e-18
5.25326e-18
4.88234e-18
4.5902e-18
5.66852e-18
5.34746e-18
5.14869e-18
4.94876e-18
5.59034e-18
5.371e-18
5.45562e-18
5.83425e-18
5.82566e-18
5.37055e-18
5.24488e-18
5.73836e-18
5.49489e-18
5.25175e-18
4.8276e-18
4.64214e-18
5.24752e-18
5.18829e-18
5.24037e-18
6.33129e-18
5.40844e-18
5.17823e-18
5.05468e-18
5.74532e-18
5.03276e-18
4.96311e-18
4.83417e-18
4.99744e-18
5.4315e-18
5.638e-18
5.14142e-18
5.78355e-18
4.9565e-18
4.69034e-18
5.17277e-18
5.68434e-18
5.34013e-18
5.75823e-18
5.71919e-18
5.40059e-18
5.13324e-18
5.39427e-18
5.48509e-18
5.32626e-18
5.42095e-18
5.34101e-18
4.76471e-18
5.11182e-18
5.00981e-18
5.54831e-18
5.32584e-18
5.31759e-18
4.71187e-18
4.64318e-18
5.23832e-18
5.3965e-18
5.77957e-18
5.53696e-18
5.27861e-18
4.67629e-18
5.13239e-18
5.19909e-18
5.05798e-18
5.22454e-18
5.03477e-18
5.06936e-18
5.39839e-18
5.08073e-18
5.2545e-18
4.82828e-18
4.54035e-18
5.13644e-18
5.21682e-18
5.21512e-18
4.97772e-18
5.10157e-18
5.4803e-18
4.9221e-18
5.15992e-18
5.49973e-18
5.46754e-18
4.93878e-18
5.32256e-18
5.40684e-18
5.69302e-18
5.56919e-18
5.80528e-18
4.69292e-18
4.81326e-18
5.81155e-18
5.76869e-18
9.42983e-18
9.57126e-18
1.02381e-17
8.87239e-18
9.40001e-18
8.91441e-18
9.79411e-18
9.31959e-18
1.02176e-17
8.99124e-18
8.91176e-18
9.66845e-18
1.00923e-17
9.80273e-18
9.66705e-18
8.96462e-18
9.98042e-18
9.89653e-18
1.00337e-17
9.25612e-18
1.06726e-17
9.35741e-18
9.03215e-18
9.89078e-18
1.0598e-17
1.01999e-17
1.01167e-17
1.02088e-17
1.10179e-17
1.09957e-17
9.67347e-18
8.43723e-18
9.9203e-18
1.03153e-17
1.01862e-17
8.90527e-18
1.07349e-17
1.05807e-17
9.54163e-18
8.80056e-18
9.87898e-18
8.66613e-18
8.55683e-18
1.01931e-17
9.7292e-18
9.96872e-18
1.06258e-17
1.03593e-17
1.01371e-17
1.01455e-17
9.21815e-18
9.81764e-18
8.87778e-18
9.3965e-18
9.09335e-18
1.00288e-17
9.4032e-18
1.03139e-17
9.9105e-18
9.6655e-18
9.4942e-18
9.96896e-18
8.47911e-18
1.07727e-17
9.45567e-18
9.45836e-18
1.04679e-17
9.72658e-18
8.91901e-18
1.01546e-17
1.02561e-17
9.42987e-18
9.54475e-18
9.42646e-18
9.0956e-18
8.89236e-18
9.20451e-18
9.03751e-18
1.01228e-17
1.00552e-17
8.86025e-18
9.10283e-18
9.32368e-18
1.01878e-17
8.63245e-18
9.43119e-18
1.01474e-17
1.07484e-17
1.08837e-17
9.65889e-18
1.00292e-17
9.96558e-18
9.60958e-18
9.33189e-18
8.98546e-18
8.73508e-18
1.06613e-17
1.02487e-17
8.70159e-18
9.54395e-18
9.60724e-18
9.94858e-18
9.89634e-18
1.02095e-17
9.03525e-18
8.73746e-18
9.92055e-18
9.3911e-18
9.99713e-18
9.35226e-18
9.98839e-18
1.05189e-17
9.6241e-18
9.70475e-18
9.39172e-18
1.0679e-17
1.00553e-17
9.29399e-18
9.63806e-18
8.96595e-18
1.06253e-17
1.00896e-17
1.07444e-17
9.89434e-18
8.84861e-18
9.58866e-18
9.78835e-18
9.94139e-18
9.74545e-18
9.5595e-18
1.01911e-17
9.93214e-18
8.62487e-18
9.12054e-18
1.00785e-17
1.00055e-17
1.03403e-17
9.43318e-18
1.04785e-17
1.02037e-17
8.49096e-18
9.18677e-18
1.04249e-17
1.0145e-17
9.92731e-18
1.0303e-17
9.34212e-18
9.91549e-18
9.37988e-18
9.37426e-18
8.98337e-18
9.95853e-18
9.60071e-18
9.56107e-18
8.62195e-18
8.33746e-18
1.04272e-17
9.89446e-18
9.54223e-18
9.52273e-18
8.81284e-18
9.59349e-18
1.04859e-17
9.70974e-18
1.04819e-17
1.03614e-17
9.7913e-18
1.00318e-17
1.00569e-17
1.05046e-17
8.98058e-18
1.07057e-17
1.03753e-17
9.32838e-18
8.50164e-18
9.2859e-18
1.10018e-17
9.08653e-18
1.00272e-17
1.1402e-17
1.02791e-17
9.52412e-18
8.99234e-18
9.06538e-18
9.14942e-18
9.00354e-18
9.70149e-18
9.64161e-18
9.77875e-18
1.08014e-17
8.93443e-18
1.09585e-17
9.59917e-18
9.44431e-18
1.05522e-17
9.65852e-18
8.68874e-18
9.64056e-18
9.47606e-18
9.77858e-18
1.05682e-17
1.02012e-17
9.56219e-18
1.07617e-17
9.06095e-18
8.6279e-18
9.8342e-18
9.37584e-18
9.30673e-18
8.79089e-18
9.90946e-18
9.07575e-18
1.01139e-17
9.66048e-18
9.71705e-18
8.3885e-18
9.30032e-18
9.37075e-18
9.3755e-18
9.07989e-18
9.46568e-18
1.02712e-17
1.02299e-17
9.2351e-18
9.3791e-18
9.30389e-18
8.45751e-18
9.37233e-18
1.05091e-17
9.07264e-18
8.46017e-18
9.0522e-18
9.92005e-18
9.83293e-18
9.39436e-18
8.85045e-18
9.85962e-18
1.05099e-17
1.0115e-17
1.04858e-17
1.05232e-17
9.95498e-18
8.21658e-18
9.45928e-18
9.74161e-18
8.93438e-18
9.56404e-18
9.47409e-18
9.15597e-18
1.01499e-17
9.1702e-18
9.30803e-18
1.05035e-17
1.09539e-17
9.83181e-18
9.44275e-18
1.80663e-17
1.88308e-17
1.76059e-17
1.85749e-17
1.9689e-17
1.84061e-17
1.80606e-17
1.91188e-17
1.94779e-17
1.71312e-17
1.68051e-17
1.82229e-17
1.76807e-17
1.77549e-17
1.86378e-17
1.95841e-17
1.88908e-17
1.96709e-17
1.83617e-17
1.9852e-17
1.91095e-17
1.84232e-17
1.73931e-17
1.57361e-17
1.78944e-17
1.96708e-17
1.78546e-17
1.779e-17
1.84207e-17
1.91671e-17
1.76846e-17
1.70553e-17
1.76635e-17
1.80263e-17
1.66457e-17
1.90291e-17
2.12836e-17
1.88196e-17
1.73019e-17
1.63273e-17
1.89778e-17
1.86463e-17
1.7884e-17
1.83617e-17
1.73997e-17
1.9765e-17
1.7926e-17
1.7932e-17
1.77108e-17
1.96416e-17
1.89791e-17
1.69134e-17
1.81809e-17
1.88607e-17
1.7801e-17
1.74495e-17
1.76265e-17
1.75993e-17
1.88564e-17
1.67499e-17
1.80161e-17
1.85673e-17
1.64237e-17
1.90854e-17
1.86436e-17
1.72812e-17
1.96983e-17
1.79504e-17
1.73122e-17
1.92092e-17
1.5719e-17
1.90275e-17
1.86008e-17
1.69096e-17
1.59207e-17
1.79178e-17
1.7783e-17
1.92014e-17
1.92345e-17
1.8515e-17
1.60346e-17
1.79559e-17
1.84895e-17
1.99872e-17
1.88693e-17
1.9073e-17
1.7363e-17
1.88996e-17
1.94127e-17
1.83282e-17
1.92691e-17
1.78169e-17
1.87349e-17
1.84932e-17
1.87032e-17
1.90878e-17
1.96963e-17
1.91333e-17
1.78649e-17
1.93889e-17
1.79736e-17
1.75499e-17
1.74767e-17
1.8088e-17
1.87224e-17
1.81674e-17
1.65105e-17
1.7333e-17
1.82477e-17
1.77328e-17
1.70186e-17
1.92274e-17
1.83499e-17
1.82517e-17
1.86982e-17
1.87761e-17
1.75171e-17
2.00192e-17
1.79836e-17
1.88136e-17
2.17046e-17
1.9411e-17
1.7644e-17
1.90324e-17
1.78734e-17
1.86713e-17
1.82987e-17
1.81269e-17
1.72182e-17
1.7836e-17
1.82843e-17
1.87385e-17
1.64054e-17
1.74534e-17
1.75257e-17
1.75144e-17
1.85033e-17
1.78344e-17
1.63869e-17
1.79364e-17
1.71557e-17
1.67638e-17
1.95893e-17
1.85045e-17
1.94416e-17
2.0767e-17
1.89989e-17
1.78474e-17
1.81761e-17
1.80997e-17
1.8875e-17
1.74573e-17
1.74049e-17
1.38381e-17
1.66493e-17
1.73312e-17
1.79314e-17
1.94857e-17
1.89027e-17
1.84251e-17
1.84354e-17
1.9643e-17
1.84685e-17
1.80189e-17
1.81652e-17
1.65023e-17
1.8975e-17
1.72836e-17
1.73539e-17
1.89481e-17
2.06171e-17
1.78032e-17
2.03271e-17
1.88426e-17
1.61146e-17
1.82687e-17
1.78278e-17
1.54964e-17
1.64186e-17
1.69441e-17
2.01605e-17
2.07617e-17
1.81928e-17
1.85956e-17
1.6028e-17
1.683e-17
1.90134e-17
1.89624e-17
1.79331e-17
1.7416e-17
1.66463e-17
1.90969e-17
1.77877e-17
1.67097e-17
1.65904e-17
1.7795e-17
1.90371e-17
1.72613e-17
1.69354e-17
1.74483e-17
1.70675e-17
1.84097e-17
1.74936e-17
2.0473e-17
1.75165e-17
1.68907e-17
2.07575e-17
1.86159e-17
1.76899e-17
1.76547e-17
1.80711e-17
1.85513e-17
1.80971e-17
1.74929e-17
2.10908e-17
1.78277e-17
1.67977e-17
1.85936e-17
1.82802e-17
1.54284e-17
1.64127e-17
1.54985e-17
1.83062e-17
1.94052e-17
1.85015e-17
1.85804e-17
1.9064e-17
1.7356e-17
1.80239e-17
1.79865e-17
1.81268e-17
1.67152e-17
1.75193e-17
1.73438e-17
1.75009e-17
1.63932e-17
1.92101e-17
1.76342e-17
1.76038e-17
2.01043e-17
1.68745e-17
1.91001e-17
1.73994e-17
1.91448e-17
1.85224e-17
1.80142e-17
1.8522e-17
1.83707e-17
1.92549e-17
1.8802e-17
1.73176e-17
1.83547e-17
1.73385e-17
1.77587e-17
1.6702e-17
1.89203e-17
3.32252e-17
3.32011e-17
3.37828e-17
3.63378e-17
3.80707e-17
3.70861e-17
3.26346e-17
3.44368e-17
3.47118e-17
3.16377e-17
3.10156e-17
3.28459e-17
3.09947e-17
3.12947e-17
3.41136e-17
3.22071e-17
3.23383e-17
3.23498e-17
2.89419e-17
3.19663e-17
3.14456e-17
3.21862e-17
3.59503e-17
3.21916e-17
3.38393e-17
3.41111e-17
3.42314e-17
3.40527e-17
3.05831e-17
3.3886e-17
3.67e-17
3.83556e-17
3.09682e-17
2.87934e-17
3.12165e-17
3.30746e-17
3.29884e-17
3.4967e-17
3.551e-17
3.27495e-17
3.14649e-17
3.75246e-17
4.00063e-17
3.18159e-17
3.23325e-17
3.25131e-17
3.14721e-17
3.30888e-17
3.38209e-17
3.44176e-17
3.51604e-17
3.35544e-17
3.27776e-17
3.4883e-17
3.14752e-17
3.25695e-17
3.38794e-17
3.227e-17
3.21586e-17
3.15945e-17
3.49173e-17
3.54838e-17
3.13843e-17
3.56808e-17
3.54781e-17
3.377e-17
3.01449e-17
3.16011e-17
3.37755e-17
3.33289e-17
3.19939e-17
3.63351e-17
3.56329e-17
3.5586e-17
3.20982e-17
3.62948e-17
3.31177e-17
3.54871e-17
3.52179e-17
3.52043e-17
3.14943e-17
3.49954e-17
3.38695e-17
3.88218e-17
3.56328e-17
3.36308e-17
3.33695e-17
3.10672e-17
3.10212e-17
3.10615e-17
3.24808e-17
3.33848e-17
3.19289e-17
3.17239e-17
3.59023e-17
3.47558e-17
2.97357e-17
3.29774e-17
3.22445e-17
3.58429e-17
3.97752e-17
3.08629e-17
3.6829e-17
3.17771e-17
3.35017e-17
3.63415e-17
3.62231e-17
3.22674e-17
3.57209e-17
3.37655e-17
3.48912e-17
3.67895e-17
3.65372e-17
3.10744e-17
3.56823e-17
3.13033e-17
3.10284e-17
3.58078e-17
3.61285e-17
3.57091e-17
3.41194e-17
3.25978e-17
3.14264e-17
3.28858e-17
3.2819e-17
3.21679e-17
3.56759e-17
3.58055e-17
3.66261e-17
3.72361e-17
2.94974e-17
3.12189e-17
3.34454e-17
3.35242e-17
3.60188e-17
3.52369e-17
3.42778e-17
3.02963e-17
3.53172e-17
3.70957e-17
3.39622e-17
3.077e-17
3.61664e-17
3.44988e-17
3.43675e-17
3.21583e-17
3.13745e-17
3.21306e-17
3.05656e-17
3.31815e-17
3.58872e-17
3.87255e-17
3.7007e-17
3.04122e-17
3.33385e-17
3.51762e-17
3.62666e-17
3.33033e-17
3.11047e-17
3.38712e-17
3.32494e-17
3.73925e-17
3.29325e-17
3.42261e-17
3.16142e-17
3.28635e-17
3.55585e-17
2.96709e-17
3.35259e-17
3.20556e-17
3.51541e-17
3.491e-17
3.67681e-17
3.55328e-17
3.5179e-17
3.56581e-17
3.43758e-17
3.00759e-17
3.17568e-17
3.31521e-17
3.51161e-17
3.63476e-17
3.43102e-17
3.63329e-17
3.62483e-17
3.33808e-17
3.33045e-17
3.50102e-17
3.97312e-17
3.50509e-17
3.29372e-17
3.50302e-17
3.43885e-17
3.24275e-17
3.55857e-17
3.5273e-17
3.46236e-17
3.01772e-17
3.59159e-17
3.56543e-17
3.44863e-17
3.53397e-17
3.353e-17
4.04653e-17
3.55432e-17
3.26863e-17
3.59109e-17
3.65301e-17
3.19623e-17
3.1409e-17
3.49194e-17
3.39671e-17
3.24104e-17
3.27268e-17
3.36915e-17
3.04596e-17
3.18584e-17
3.09619e-17
3.6429e-17
3.58721e-17
3.32848e-17
3.29679e-17
3.37666e-17
3.35658e-17
3.38408e-17
3.29793e-17
3.71794e-17
3.69585e-17
3.627e-17
3.52369e-17
3.40073e-17
3.52504e-17
3.85729e-17
3.20792e-17
3.528e-17
3.4471e-17
3.24738e-17
3.19625e-17
3.27131e-17
3.37581e-17
2.83325e-17
3.35427e-17
3.57494e-17
3.17899e-17
3.32948e-17
3.66607e-17
3.39355e-17
3.20694e-17
3.45706e-17
3.08935e-17
3.14861e-17
3.21671e-17
3.31975e-17
2.89834e-17
3.36957e-17
3.64173e-17
6.78647e-17
6.07528e-17
6.36422e-17
6.05867e-17
6.75902e-17
6.34682e-17
6.40467e-17
5.7624e-17
5.70779e-17
5.79268e-17
6.09953e-17
6.62132e-17
6.40341e-17
5.48711e-17
6.36317e-17
7.15076e-17
6.68674e-17
6.60799e-17
5.73381e-17
6.36742e-17
5.8436e-17
6.74284e-17
6.00994e-17
7.01479e-17
6.65769e-17
6.80905e-17
6.53042e-17
6.5136e-17
5.59522e-17
5.97288e-17
6.34301e-17
6.40653e-17
5.80805e-17
5.98859e-17
6.92071e-17
7.12571e-17
6.56063e-17
6.89697e-17
5.71285e-17
6.5191e-17
6.2019e-17
7.21584e-17
7.08373e-17
5.81766e-17
5.88484e-17
6.43988e-17
6.81219e-17
6.30544e-17
7.40267e-17
7.23805e-17
5.461e-17
6.7905e-17
6.77014e-17
7.02017e-17
6.46417e-17
6.73642e-17
7.12834e-17
6.29497e-17
6.53225e-17
6.48108e-17
5.84042e-17
5.6945e-17
6.86836e-17
6.58838e-17
6.01073e-17
6.35149e-17
6.89605e-17
6.66978e-17
6.53101e-17
6.69004e-17
6.74821e-17
6.43534e-17
6.16582e-17
5.66786e-17
6.08119e-17
6.64029e-17
6.71445e-17
5.51821e-17
5.55243e-17
5.95919e-17
5.45869e-17
5.77461e-17
6.48151e-17
6.50853e-17
5.74835e-17
5.84842e-17
6.37238e-17
5.94678e-17
5.73194e-17
6.29481e-17
6.01704e-17
6.07262e-17
6.06023e-17
6.01632e-17
5.76803e-17
6.49865e-17
6.67266e-17
6.47768e-17
5.65886e-17
5.37407e-17
6.08015e-17
6.06488e-17
5.86466e-17
6.60949e-17
6.04858e-17
6.53428e-17
6.38392e-17
6.21468e-17
6.39468e-17
5.58457e-17
6.24436e-17
6.53089e-17
6.64022e-17
6.56415e-17
6.28994e-17
6.35407e-17
6.61586e-17
6.53828e-17
6.4654e-17
6.75795e-17
6.27859e-17
6.10742e-17
6.19662e-17
5.5676e-17
6.47169e-17
6.43677e-17
6.3161e-17
6.15145e-17
6.6126e-17
6.58761e-17
6.60342e-17
6.48394e-17
6.20037e-17
6.48603e-17
6.33399e-17
6.41285e-17
6.21172e-17
6.05772e-17
6.11847e-17
6.15312e-17
6.50248e-17
6.23505e-17
6.83456e-17
5.76737e-17
6.35725e-17
6.2633e-17
6.07967e-17
6.11376e-17
6.11117e-17
6.71773e-17
6.80092e-17
6.18787e-17
6.62163e-17
6.59384e-17
6.49457e-17
6.75221e-17
5.81922e-17
6.22218e-17
6.05166e-17
5.52274e-17
6.11676e-17
6.77877e-17
6.76612e-17
6.7886e-17
5.85301e-17
5.56043e-17
6.30792e-17
6.1009e-17
6.7537e-17
6.03804e-17
6.19605e-17
6.25276e-17
6.34533e-17
6.39571e-17
6.5753e-17
6.33259e-17
6.36136e-17
7.34468e-17
5.83829e-17
5.91502e-17
6.03005e-17
6.11366e-17
6.22592e-17
6.11149e-17
6.41732e-17
6.38635e-17
5.96088e-17
6.33395e-17
6.56323e-17
6.40432e-17
6.38116e-17
5.62402e-17
6.36692e-17
6.68862e-17
6.36276e-17
6.26292e-17
6.29174e-17
5.78816e-17
6.72436e-17
6.4303e-17
6.79071e-17
6.44993e-17
6.29617e-17
6.57913e-17
6.07749e-17
6.13173e-17
6.12936e-17
6.98155e-17
6.48216e-17
6.23907e-17
5.97218e-17
6.7345e-17
6.14345e-17
5.6964e-17
6.29383e-17
5.98756e-17
6.46494e-17
6.44239e-17
5.89277e-17
6.46683e-17
6.32291e-17
6.58745e-17
5.65172e-17
6.07681e-17
6.05293e-17
6.00688e-17
6.4846e-17
6.51013e-17
5.88724e-17
5.97243e-17
6.265e-17
6.04472e-17
6.82578e-17
5.70515e-17
6.13012e-17
6.76974e-17
5.52698e-17
6.09045e-17
6.03653e-17
5.62478e-17
5.61622e-17
6.56766e-17
6.68984e-17
6.82995e-17
6.04574e-17
6.49203e-17
6.124e-17
6.19061e-17
6.38784e-17
6.55311e-17
6.73885e-17
7.16217e-17
6.60793e-17
5.70997e-17
6.55732e-17
6.35482e-17
1.14022e-16
1.13002e-16
1.17333e-16
1.04915e-16
1.24169e-16
1.16205e-16
1.18846e-16
1.16126e-16
1.07354e-16
1.24129e-16
1.36359e-16
1.20277e-16
1.17204e-16
1.1433e-16
1.17448e-16
1.01972e-16
1.2049e-16
1.18603e-16
1.09998e-16
1.16278e-16
1.03194e-16
1.17599e-16
1.03846e-16
1.18747e-16
1.19259e-16
1.21491e-16
1.2294e-16
1.28109e-16
1.13936e-16
1.02044e-16
1.14084e-16
1.28632e-16
1.38175e-16
1.20814e-16
1.17553e-16
1.16221e-16
1.07819e-16
1.08568e-16
1.20706e-16
1.11026e-16
1.15419e-16
1.20572e-16
1.19193e-16
1.23766e-16
1.23211e-16
1.21663e-16
1.09118e-16
1.06872e-16
1.08525e-16
1.17422e-16
1.14793e-16
1.13956e-16
1.20306e-16
1.20787e-16
1.21858e-16
1.31638e-16
1.26066e-16
1.2801e-16
1.17016e-16
1.21059e-16
1.19818e-16
1.17728e-16
1.22561e-16
1.12964e-16
1.0836e-16
1.01806e-16
1.24838e-16
1.22503e-16
1.14316e-16
1.12206e-16
1.21609e-16
1.14079e-16
1.31421e-16
1.14427e-16
1.22842e-16
1.20312e-16
1.35794e-16
1.18005e-16
1.0991e-16
1.20154e-16
1.14485e-16
1.16608e-16
1.27629e-16
1.38526e-16
1.22589e-16
1.10209e-16
1.21885e-16
1.17549e-16
1.22921e-16
1.22552e-16
1.20985e-16
1.10845e-16
1.32831e-16
1.28934e-16
1.35985e-16
1.10433e-16
1.12462e-16
1.3508e-16
1.20061e-16
1.08473e-16
1.30123e-16
1.19698e-16
1.28787e-16
1.25356e-16
1.14257e-16
1.18016e-16
1.1436e-16
1.23995e-16
1.15609e-16
1.14419e-16
1.1374e-16
1.14716e-16
9.91361e-17
1.07296e-16
1.14361e-16
1.18253e-16
1.20104e-16
1.11882e-16
9.42581e-17
9.30685e-17
1.07442e-16
1.21491e-16
1.21147e-16
1.31265e-16
1.33006e-16
1.14081e-16
1.12937e-16
1.19549e-16
1.11544e-16
1.17487e-16
1.13514e-16
1.24507e-16
1.20838e-16
1.2292e-16
1.18043e-16
1.03514e-16
1.06589e-16
1.09452e-16
1.23354e-16
1.08901e-16
1.14489e-16
1.12216e-16
1.21627e-16
1.14425e-16
1.26127e-16
1.25915e-16
1.11133e-16
1.12248e-16
1.21485e-16
1.19745e-16
1.08068e-16
1.06633e-16
1.24699e-16
1.12634e-16
1.11215e-16
1.25398e-16
1.28658e-16
1.19869e-16
1.28526e-16
1.19392e-16
1.13283e-16
1.17138e-16
1.18526e-16
1.12293e-16
1.21106e-16
1.15224e-16
1.23557e-16
1.22469e-16
1.18285e-16
1.27686e-16
1.15292e-16
1.22482e-16
1.07397e-16
1.18422e-16
1.11466e-16
1.18215e-16
1.30005e-16
1.25988e-16
1.27348e-16
1.23782e-16
1.31134e-16
1.274e-16
1.14089e-16
1.11223e-16
1.23078e-16
1.07912e-16
1.21704e-16
1.15081e-16
1.20712e-16
1.20135e-16
1.13444e-16
1.07183e-16
1.2466e-16
1.17849e-16
1.16657e-16
1.07554e-16
1.20093e-16
1.16595e-16
1.12042e-16
1.04892e-16
1.19419e-16
1.24052e-16
1.1593e-16
1.21615e-16
1.16142e-16
1.1483e-16
1.18124e-16
1.12153e-16
1.10877e-16
1.25453e-16
1.13914e-16
1.18009e-16
1.17656e-16
1.15283e-16
1.20765e-16
1.21614e-16
1.33832e-16
1.17816e-16
1.18996e-16
1.2842e-16
1.33056e-16
1.20227e-16
1.17499e-16
1.21178e-16
1.31729e-16
1.26823e-16
1.17891e-16
1.25779e-16
1.1991e-16
1.30173e-16
1.13747e-16
1.16162e-16
1.18045e-16
1.30065e-16
1.31654e-16
1.2179e-16
1.15535e-16
1.21602e-16
1.19102e-16
1.17315e-16
1.05628e-16
1.08642e-16
1.20392e-16
1.3107e-16
1.23788e-16
1.35746e-16
1.17972e-16
1.20328e-16
1.15973e-16
1.147e-16
1.20535e-16
1.24475e-16
1.19728e-16
1.1088e-16
1.23588e-16
1.10694e-16
2.58865e-16
2.15264e-16
2.16766e-16
2.28924e-16
2.07879e-16
2.38997e-16
2.10754e-16
2.1163e-16
2.17269e-16
2.18798e-16
2.13763e-16
2.24571e-16
2.16567e-16
2.04667e-16
2.05616e-16
2.04969e-16
2.1524e-16
2.14197e-16
2.20321e-16
1.97882e-16
2.27085e-16
2.24306e-16
2.13499e-16
2.24987e-16
2.19317e-16
2.27823e-16
2.22708e-16
2.09601e-16
1.99431e-16
1.96495e-16
2.25277e-16
2.27586e-16
2.40203e-16
2.19443e-16
2.12255e-16
2.20111e-16
2.09821e-16
2.30453e-16
2.19733e-16
2.19655e-16
2.05055e-16
2.16796e-16
2.02989e-16
2.31905e-16
2.32242e-16
2.24764e-16
2.26017e-16
2.05769e-16
2.11521e-16
2.32781e-16
2.07912e-16
2.27628e-16
2.34007e-16
2.44084e-16
2.1531e-16
2.19637e-16
2.0315e-16
2.33131e-16
2.37385e-16
2.30005e-16
2.51009e-16
2.43769e-16
2.12277e-16
2.14804e-16
2.23765e-16
2.2142e-16
2.32204e-16
2.14564e-16
2.14806e-16
2.26275e-16
2.12679e-16
2.14493e-16
2.10378e-16
2.35264e-16
2.28035e-16
1.94623e-16
2.47328e-16
2.6204e-16
2.68144e-16
2.16998e-16
2.38772e-16
2.27412e-16
2.01238e-16
2.06187e-16
2.13612e-16
2.04176e-16
2.01861e-16
2.0503e-16
2.00507e-16
2.24433e-16
2.29781e-16
2.37029e-16
2.39649e-16
2.00886e-16
2.35597e-16
2.10479e-16
2.19764e-16
2.36312e-16
2.31253e-16
2.25687e-16
2.3956e-16
2.29402e-16
2.36097e-16
2.21946e-16
2.26231e-16
2.44027e-16
2.39897e-16
2.01929e-16
2.07074e-16
2.39735e-16
2.26856e-16
2.43484e-16
2.49186e-16
2.19548e-16
2.22347e-16
2.36945e-16
2.22328e-16
1.99863e-16
2.11281e-16
2.00749e-16
2.22487e-16
2.06482e-16
2.14091e-16
2.40825e-16
2.14116e-16
2.0395e-16
2.11499e-16
2.23289e-16
2.07485e-16
2.20079e-16
2.11462e-16
2.14039e-16
2.08341e-16
2.17361e-16
2.25739e-16
2.06761e-16
2.25346e-16
2.32682e-16
2.1827e-16
2.11587e-16
2.40167e-16
2.18655e-16
2.23312e-16
2.00024e-16
2.349e-16
2.43883e-16
2.31078e-16
2.30316e-16
2.41991e-16
2.42723e-16
2.22497e-16
2.04308e-16
2.31836e-16
2.14376e-16
2.13733e-16
2.16007e-16
2.18295e-16
2.0179e-16
2.16233e-16
2.17245e-16
2.36262e-16
2.44448e-16
2.37682e-16
2.17142e-16
2.18342e-16
2.01925e-16
2.1976e-16
1.9979e-16
2.13578e-16
2.15587e-16
2.13247e-16
2.32521e-16
2.23032e-16
2.05799e-16
2.11628e-16
2.23114e-16
2.21555e-16
2.22724e-16
2.52743e-16
2.3185e-16
2.3949e-16
2.31887e-16
1.96337e-16
2.01652e-16
2.54958e-16
2.35044e-16
2.30954e-16
2.28399e-16
2.36354e-16
2.35831e-16
2.13499e-16
2.24969e-16
2.36141e-16
1.91992e-16
2.17482e-16
2.35396e-16
2.09449e-16
2.31347e-16
2.2471e-16
2.11123e-16
2.09475e-16
2.22738e-16
2.00873e-16
2.13863e-16
1.99008e-16
2.15185e-16
2.2194e-16
2.2112e-16
2.20244e-16
2.24745e-16
2.26915e-16
2.23767e-16
2.06183e-16
2.08417e-16
2.16675e-16
2.23434e-16
2.06888e-16
2.1924e-16
2.30037e-16
2.3955e-16
2.18593e-16
2.26608e-16
2.48653e-16
2.1995e-16
2.25497e-16
2.2562e-16
2.0927e-16
2.17525e-16
2.05245e-16
2.23827e-16
2.50556e-16
2.41109e-16
2.21244e-16
2.09332e-16
2.26078e-16
2.32468e-16
2.02737e-16
2.36976e-16
2.35247e-16
2.20182e-16
2.1598e-16
2.34706e-16
2.32417e-16
2.29145e-16
2.26854e-16
2.10241e-16
2.09532e-16
2.21944e-16
2.25248e-16
2.18434e-16
2.40411e-16
2.07328e-16
2.03612e-16
1.90365e-16
2.15213e-16
2.07924e-16
4.4964e-16
4.20437e-16
4.16564e-16
4.22507e-16
4.15029e-16
4.53214e-16
3.90787e-16
4.18055e-16
4.051e-16
3.99466e-16
4.5134e-16
4.43709e-16
3.4065e-16
4.53345e-16
4.27797e-16
3.93976e-16
5.13911e-16
4.03869e-16
3.76831e-16
4.24564e-16
4.00111e-16
3.90501e-16
4.09532e-16
4.48769e-16
4.3739e-16
4.69948e-16
4.17092e-16
3.87612e-16
4.20318e-16
4.44845e-16
4.44205e-16
4.18213e-16
3.74358e-16
4.08915e-16
4.31184e-16
4.51851e-16
4.15653e-16
4.31426e-16
4.34988e-16
4.23021e-16
4.47333e-16
3.95826e-16
4.25103e-16
3.97856e-16
4.73183e-16
4.37241e-16
4.36793e-16
3.94325e-16
4.16137e-16
4.44641e-16
4.34699e-16
4.57901e-16
4.87895e-16
3.94854e-16
4.33159e-16
3.9016e-16
3.94399e-16
4.07301e-16
3.94333e-16
4.20048e-16
4.2725e-16
4.02111e-16
3.79447e-16
4.08713e-16
3.87312e-16
3.62357e-16
4.09217e-16
4.26896e-16
4.17499e-16
4.30447e-16
3.92087e-16
4.33107e-16
3.93486e-16
4.27758e-16
3.94319e-16
3.87246e-16
3.94907e-16
4.27172e-16
4.41699e-16
4.06828e-16
4.29633e-16
3.92411e-16
4.12916e-16
4.15379e-16
3.92489e-16
4.0896e-16
4.43157e-16
4.19368e-16
3.77494e-16
3.81102e-16
3.72877e-16
4.09264e-16
3.75603e-16
4.15568e-16
4.22176e-16
3.82398e-16
4.39497e-16
4.13765e-16
4.02913e-16
3.54943e-16
3.94282e-16
3.88672e-16
4.20408e-16
3.68161e-16
4.50136e-16
4.74482e-16
3.93371e-16
4.03797e-16
4.02368e-16
4.17552e-16
4.06089e-16
3.78575e-16
4.28473e-16
4.49501e-16
4.00767e-16
4.1254e-16
3.90079e-16
3.65664e-16
4.35657e-16
4.69977e-16
4.36738e-16
3.98438e-16
3.89146e-16
4.17678e-16
3.81757e-16
3.62379e-16
4.06525e-16
4.22608e-16
3.8715e-16
4.10552e-16
4.13237e-16
4.10561e-16
3.98092e-16
3.87391e-16
4.06035e-16
4.0731e-16
4.14543e-16
4.30574e-16
4.02843e-16
3.72654e-16
3.87418e-16
3.99269e-16
4.35471e-16
3.71599e-16
3.83054e-16
4.27968e-16
4.17938e-16
4.02725e-16
4.29217e-16
4.05891e-16
4.01382e-16
4.091e-16
4.48915e-16
3.99639e-16
4.51699e-16
4.49263e-16
4.23714e-16
3.60034e-16
4.07818e-16
4.1169e-16
4.51316e-16
4.25087e-16
4.04386e-16
4.15833e-16
4.08761e-16
3.80761e-16
4.22321e-16
4.06761e-16
4.56724e-16
4.02466e-16
4.41424e-16
4.60602e-16
4.07186e-16
3.61822e-16
4.01179e-16
4.38797e-16
3.82817e-16
3.83218e-16
4.06839e-16
3.90654e-16
4.03327e-16
4.03626e-16
4.02265e-16
4.32085e-16
4.59845e-16
3.96091e-16
3.89271e-16
3.69513e-16
3.95381e-16
4.35429e-16
3.9525e-16
4.00651e-16
4.42773e-16
3.97907e-16
4.41787e-16
4.18232e-16
4.05914e-16
3.88259e-16
4.09119e-16
4.10263e-16
3.88422e-16