# vtk DataFile Version 1.0
Ion Density - Current Sheet
ASCII
DATASET STRUCTURED_POINTS
DIMENSIONS 256 128 1
ORIGIN 0 0 0
SPACING 0.15625 0.15625 1
POINT_DATA 32768
SCALARS rhoi float
LOOKUP_TABLE default
1.72832e-18
1.42311e-18
1.27943e-18
1.74828e-18
1.64669e-18
1.59961e-18
1.95862e-18
1.8027e-18
3.31773e-18
2.21114e-18
1.66412e-18
1.61379e-18
1.63609e-18
1.69048e-18
1.46331e-18
1.57992e-18
1.72764e-18
1.92041e-18
1.41222e-18
1.32081e-18
1.81882e-18
2.65583e-18
2.16054e-18
1.73251e-18
1.98831e-18
1.55576e-18
2.03499e-18
1.83323e-18
2.03219e-18
1.77295e-18
1.42631e-18
1.88604e-18
1.90579e-18
1.74946e-18
1.35739e-18
1.68934e-18
1.56877e-18
1.35362e-18
2.05711e-18
2.05322e-18
1.52472e-18
1.6387e-18
1.47481e-18
1.37722e-18
1.78013e-18
2.05451e-18
1.58855e-18
2.7843e-18
2.2948e-18
1.88806e-18
1.57933e-18
1.88902e-18
1.74673e-18
2.37179e-18
1.93744e-18
1.89713e-18
1.70847e-18
1.97217e-18
1.92047e-18
1.61211e-18
1.14856e-18
1.61352e-18
2.07591e-18
1.92477e-18
1.6633e-18
1.36376e-18
1.71453e-18
1.49041e-18
1.59883e-18
2.12928e-18
1.62138e-18
1.96307e-18
1.61621e-18
1.55026e-18
1.60785e-18
2.30632e-18
2.11663e-18
1.51955e-18
1.71543e-18
1.7566e-18
1.74503e-18
1.79236e-18
2.32299e-18
1.99464e-18
2.18692e-18
2.14879e-18
1.95119e-18
2.14942e-18
1.96732e-18
1.45205e-18
1.433e-18
1.41836e-18
2.07703e-18
1.30463e-18
1.36675e-18
1.55748e-18
1.99662e-18
1.706e-18
1.68235e-18
1.49242e-18
1.34256e-18
1.8864e-18
1.16414e-18
1.33325e-18
1.75105e-18
1.498e-18
1.94761e-18
1.72213e-18
1.50915e-18
1.70733e-18
1.9996e-18
1.47095e-18
1.86882e-18
2.56672e-18
1.32208e-18
1.93636e-18
1.46488e-18
1.53578e-18
2.02314e-18
1.59301e-18
2.02481e-18
1.91683e-18
2.22681e-18
2.1324e-18
1.91841e-18
1.69425e-18
1.76356e-18
1.50188e-18
1.44732e-18
1.55566e-18
1.66561e-18
1.40739e-18
1.54429e-18
2.16169e-18
2.7288e-18
1.83957e-18
1.62623e-18
1.71753e-18
2.15068e-18
2.88459e-18
1.54399e-18
1.58527e-18
1.377e-18
1.77344e-18
1.30138e-18
2.00954e-18
1.72538e-18
1.5043e-18
1.61346e-18
1.64093e-18
1.78186e-18
1.43889e-18
1.98822e-18
1.74646e-18
1.85162e-18
1.64759e-18
1.78719e-18
2.13142e-18
1.93136e-18
1.69208e-18
1.75672e-18
1.79274e-18
2.50934e-18
2.91871e-18
2.53256e-18
1.86285e-18
1.78802e-18
2.17677e-18
1.44075e-18
1.62386e-18
1.6612e-18
1.89384e-18
2.22801e-18
1.73779e-18
1.63583e-18
1.65886e-18
2.13865e-18
1.67436e-18
1.78586e-18
1.79571e-18
1.69819e-18
1.77142e-18
2.38138e-18
1.94248e-18
2.17528e-18
2.14428e-18
1.78311e-18
1.62902e-18
2.76267e-18
2.67568e-18
2.60034e-18
2.18783e-18
1.92907e-18
1.64931e-18
1.44835e-18
1.77868e-18
2.18364e-18
1.77006e-18
1.93673e-18
1.85923e-18
1.31495e-18
1.8131e-18
1.98104e-18
2.26358e-18
2.756e-18
2.25301e-18
1.56013e-18
1.73643e-18
1.85837e-18
2.1272e-18
1.70016e-18
1.68007e-18
1.7021e-18
1.66788e-18
1.84264e-18
2.10124e-18
1.67395e-18
2.10201e-18
1.96385e-18
1.23598e-18
1.91389e-18
1.87191e-18
1.09095e-18
1.93332e-18
1.56948e-18
1.47563e-18
1.22888e-18
2.10834e-18
1.63493e-18
1.47909e-18
1.38825e-18
1.38599e-18
1.56366e-18
1.99675e-18
2.00411e-18
1.69162e-18
1.51784e-18
1.2531e-18
2.38913e-18
1.70172e-18
1.4189e-18
2.11584e-18
1.62828e-18
1.51235e-18
1.7631e-18
2.13267e-18
1.6632e-18
1.11218e-18
1.8597e-18
2.24675e-18
2.32053e-18
1.67459e-18
1.84999e-18
1.80996e-18
1.28872e-18
1.34222e-18
2.62483e-18
2.62861e-18
2.27654e-18
2.13936e-18
2.22971e-18
2.6028e-18
2.91425e-18
2.71718e-18
3.36033e-18
2.75028e-18
2.31336e-18
2.53089e-18
3.02023e-18
2.85706e-18
2.37334e-18
2.75463e-18
3.02932e-18
2.72965e-18
2.8536e-18
2.39102e-18
2.73522e-18
2.8233e-18
2.90228e-18
3.00681e-18
3.1121e-18
2.5411e-18
2.70461e-18
3.26895e-18
3.15122e-18
3.19324e-18
2.24385e-18
2.81271e-18
2.52121e-18
2.78386e-18
3.05274e-18
2.82266e-18
2.67808e-18
2.93684e-18
2.57475e-18
2.54397e-18
3.00177e-18
3.09048e-18
2.64897e-18
2.53251e-18
2.21598e-18
3.2562e-18
2.65745e-18
2.7187e-18
3.13838e-18
2.89422e-18
2.25223e-18
2.51015e-18
2.6171e-18
2.90234e-18
2.77932e-18
2.63962e-18
2.52087e-18
2.92102e-18
3.63094e-18
2.92269e-18
2.94487e-18
3.2383e-18
3.67741e-18
3.11766e-18
3.34053e-18
2.86325e-18
2.76277e-18
2.3941e-18
3.00576e-18
2.60498e-18
2.97745e-18
3.10685e-18
2.96787e-18
2.92417e-18
2.42281e-18
2.51775e-18
2.64759e-18
2.94559e-18
2.74109e-18
2.62902e-18
3.23521e-18
2.41895e-18
3.08728e-18
2.63322e-18
3.17506e-18
3.61237e-18
2.63826e-18
2.7328e-18
2.75363e-18
2.80595e-18
2.75394e-18
2.32022e-18
2.21577e-18
2.69457e-18
2.59313e-18
2.73047e-18
3.21348e-18
3.01556e-18
2.91021e-18
2.76601e-18
2.63868e-18
2.07107e-18
2.53554e-18
2.86419e-18
2.27094e-18
2.68146e-18
2.96094e-18
3.0574e-18
2.7751e-18
2.79359e-18
3.13178e-18
2.57604e-18
2.44905e-18
3.41624e-18
3.04873e-18
3.46297e-18
2.61765e-18
2.96577e-18
3.34697e-18
3.14321e-18
3.09923e-18
2.99668e-18
2.74658e-18
2.68818e-18
2.69532e-18
2.69992e-18
2.3862e-18
2.91726e-18
2.64761e-18
2.79204e-18
3.45455e-18
2.49602e-18
2.55181e-18
2.87112e-18
2.75439e-18
2.38007e-18
2.83005e-18
3.00073e-18
2.76027e-18
3.40009e-18
2.81049e-18
2.40425e-18
3.20761e-18
2.78813e-18
2.58573e-18
2.95867e-18
3.13621e-18
2.59977e-18
2.24682e-18
3.18793e-18
2.24352e-18
2.31221e-18
3.14272e-18
2.96524e-18
2.72075e-18
2.79049e-18
3.55796e-18
2.71705e-18
3.54109e-18
2.85337e-18
3.10261e-18
3.07538e-18
2.4927e-18
2.91718e-18
2.5875e-18
2.9544e-18
3.18768e-18
2.87503e-18
2.51992e-18
2.6534e-18
2.56007e-18
2.72619e-18
2.5884e-18
3.08522e-18
2.95958e-18
2.47774e-18
3.21677e-18
2.88323e-18
2.63481e-18
2.83466e-18
2.6846e-18
2.96306e-18
2.78195e-18
3.46821e-18
3.32369e-18
2.82179e-18
2.64126e-18
2.52615e-18
2.87711e-18
3.09024e-18
2.39308e-18
2.54997e-18
3.53792e-18
2.78204e-18
2.65325e-18
2.44698e-18
2.50003e-18
2.78631e-18
3.16507e-18
3.30163e-18
3.21362e-18
2.89515e-18
2.82448e-18
3.26828e-18
3.73825e-18
3.67313e-18
2.69856e-18
2.40207e-18
2.38222e-18
2.74246e-18
2.66068e-18
2.53968e-18
2.39686e-18
2.81148e-18
2.8685e-18
2.85542e-18
2.85882e-18
2.88283e-18
3.202e-18
2.80786e-18
2.90684e-18
2.78363e-18
2.77245e-18
3.34274e-18
2.78777e-18
2.6943e-18
2.15125e-18
2.61866e-18
2.96039e-18
3.04665e-18
1.90304e-18
2.85438e-18
2.65485e-18
2.81006e-18
2.65163e-18
2.76772e-18
2.88083e-18
2.889e-18
3.28061e-18
3.18265e-18
2.95829e-18
2.90908e-18
2.69736e-18
2.59156e-18
2.49882e-18
2.86668e-18
2.67098e-18
2.45561e-18
2.86731e-18
3.51637e-18
3.00136e-18
2.77915e-18
2.59618e-18
2.81052e-18
2.85002e-18
2.56156e-18
4.76542e-18
4.56629e-18
4.95158e-18
4.48967e-18
5.81946e-18
4.67954e-18
4.96604e-18
4.34413e-18
4.36e-18
4.30767e-18
4.04491e-18
4.50625e-18
5.70406e-18
5.66982e-18
5.03696e-18
5.71953e-18
5.8895e-18
4.24121e-18
4.60705e-18
5.89284e-18
6.33088e-18
5.16648e-18
4.457e-18
4.96379e-18
5.65588e-18
5.69656e-18
4.71657e-18
5.2523e-18
4.814e-18
5.44103e-18
4.57662e-18
4.33391e-18
4.22675e-18
5.72305e-18
5.45895e-18
6.42126e-18
6.12281e-18
5.78502e-18
4.4799e-18
4.56195e-18
5.05954e-18
5.42658e-18
5.84978e-18
6.46015e-18
4.89766e-18
4.94752e-18
5.3835e-18
5.07186e-18
6.30456e-18
5.91824e-18
5.27448e-18
5.10227e-18
4.44539e-18
5.30387e-18
5.59536e-18
4.41182e-18
4.24262e-18
5.09022e-18
5.42683e-18
5.73565e-18
4.67645e-18
6.00034e-18
5.67835e-18
4.82214e-18
5.34635e-18
5.18079e-18
5.70213e-18
5.27976e-18
4.77225e-18
4.95056e-18
5.26839e-18
5.01337e-18
6.35255e-18
5.3681e-18
5.01289e-18
4.53741e-18
4.218e-18
5.16326e-18
5.05102e-18
4.9591e-18
4.68936e-18
4.79427e-18
5.91227e-18
4.94357e-18
5.39174e-18
5.91845e-18
5.11046e-18
5.07717e-18
5.20154e-18
5.24354e-18
6.08648e-18
4.89899e-18
4.98139e-18
5.62636e-18
5.21287e-18
4.79303e-18
4.56192e-18
4.88984e-18
4.68749e-18
4.79862e-18
4.88339e-18
6.15067e-18
5.87708e-18
4.85472e-18
4.72541e-18
4.40722e-18
4.47516e-18
5.41036e-18
4.9756e-18
4.82356e-18
5.40111e-18
4.95684e-18
5.01054e-18
5.17825e-18
7.15785e-18
6.16686e-18
6.22385e-18
5.80419e-18
5.08833e-18
5.17204e-18
6.43311e-18
5.36815e-18
6.13392e-18
4.91951e-18
5.31951e-18
5.12523e-18
5.37436e-18
5.58687e-18
5.70015e-18
5.87758e-18
6.22472e-18
5.167e-18
4.37173e-18
4.07746e-18
4.7277e-18
4.72694e-18
4.87955e-18
5.44083e-18
4.59122e-18
4.96139e-18
4.77902e-18
4.50292e-18
5.27523e-18
4.70048e-18
5.70517e-18
5.27925e-18
5.64551e-18
4.72213e-18
5.38473e-18
4.43308e-18
3.87319e-18
4.83099e-18
5.2706e-18
5.56042e-18
4.50626e-18
4.22821e-18
5.26041e-18
4.49679e-18
7.50118e-18
5.42336e-18
5.92376e-18
5.15905e-18
5.34219e-18
4.75154e-18
4.77254e-18
4.57871e-18
5.3553e-18
5.59447e-18
5.50313e-18
5.11308e-18
5.60179e-18
5.9871e-18
7.40286e-18
5.40689e-18
4.47948e-18
4.79557e-18
4.88191e-18
4.81412e-18
4.9504e-18
4.46859e-18
4.25227e-18
4.27539e-18
4.15828e-18
5.35165e-18
5.36989e-18
5.10687e-18
4.54218e-18
4.79915e-18
4.64997e-18
5.41891e-18
4.90875e-18
4.60807e-18
5.55197e-18
4.5838e-18
5.80108e-18
5.28195e-18
5.0716e-18
4.71238e-18
5.56401e-18
5.05481e-18
4.80155e-18
5.44974e-18
5.28495e-18
6.06779e-18
5.03485e-18
5.06093e-18
5.9546e-18
4.73218e-18
5.05794e-18
4.89609e-18
4.51869e-18
3.57077e-18
4.64801e-18
4.87176e-18
5.31321e-18
4.40401e-18
5.23244e-18
4.74851e-18
5.54923e-18
4.80536e-18
4.8056e-18
5.46685e-18
4.4764e-18
5.27701e-18
4.6445e-18
5.07422e-18
4.98704e-18
5.38344e-18
4.64782e-18
4.78885e-18
4.03127e-18
5.47549e-18
5.18039e-18
5.19364e-18
4.64421e-18
4.32607e-18
5.25381e-18
6.87814e-18
5.96564e-18
4.91535e-18
4.97243e-18
4.6958e-18
5.06879e-18
5.31586e-18
4.75216e-18
5.18557e-18
6.3071e-18
5.45635e-18
6.48223e-18
5.43799e-18
5.61285e-18
5.39882e-18
4.94431e-18
4.72873e-18
5.60941e-18
5.28355e-18
1.10125e-17
9.35636e-18
9.95901e-18
1.13676e-17
9.35462e-18
8.34833e-18
9.05374e-18
9.08722e-18
9.98693e-18
9.2159e-18
9.65428e-18
7.5131e-18
9.18682e-18
9.45014e-18
1.0335e-17
9.8155e-18
9.93507e-18
1.06197e-17
1.21053e-17
9.35994e-18
9.63069e-18
9.24476e-18
8.13235e-18
8.36974e-18
9.1785e-18
1.04675e-17
9.60252e-18
1.08774e-17
9.73696e-18
9.02123e-18
1.0436e-17
1.13073e-17
9.05611e-18
1.08995e-17
8.09371e-18
1.05714e-17
1.17634e-17
8.81096e-18
9.92973e-18
8.9083e-18
9.19943e-18
7.9854e-18
9.10065e-18
1.2252e-17
9.0283e-18
8.19878e-18
1.04619e-17
1.13288e-17
1.12887e-17
9.6668e-18
9.19386e-18
9.03852e-18
8.47393e-18
1.10039e-17
9.05248e-18
9.54764e-18
1.06334e-17
1.01181e-17
8.78475e-18
8.69482e-18
7.44708e-18
1.02773e-17
1.02331e-17
1.07581e-17
9.85469e-18
1.01719e-17
1.03575e-17
9.21383e-18
9.7918e-18
1.09778e-17
1.10165e-17
9.75933e-18
9.62333e-18
9.89288e-18
9.41017e-18
9.24337e-18
1.02083e-17
9.43224e-18
9.38069e-18
1.07917e-17
1.11003e-17
9.81641e-18
8.50963e-18
8.16911e-18
1.02125e-17
8.75723e-18
9.13553e-18
1.03432e-17
9.08861e-18
9.45898e-18
1.05631e-17
9.52112e-18
9.19593e-18
1.16656e-17
9.68801e-18
1.11203e-17
1.03593e-17
9.616e-18
1.07817e-17
9.4468e-18
1.171e-17
1.20654e-17
9.91544e-18
8.85081e-18
8.61344e-18
8.50735e-18
7.97086e-18
9.89248e-18
9.51415e-18
9.51467e-18
1.08218e-17
8.91526e-18
1.05792e-17
9.86645e-18
1.25958e-17
9.46739e-18
9.89047e-18
1.02061e-17
1.28847e-17
1.17997e-17
1.09589e-17
1.01403e-17
9.90197e-18
7.56937e-18
8.83027e-18
1.00454e-17
1.08002e-17
1.05494e-17
1.0421e-17
1.00405e-17
6.86621e-18
7.96405e-18
9.58962e-18
9.50602e-18
9.51926e-18
1.02299e-17
7.42505e-18
1.00222e-17
1.12255e-17
1.00403e-17
9.92694e-18
1.00926e-17
1.01503e-17
9.91749e-18
1.14278e-17
9.49498e-18
1.05748e-17
9.65748e-18
9.40161e-18
8.97152e-18
8.87385e-18
9.17806e-18
8.36103e-18
8.73598e-18
9.38834e-18
1.19771e-17
9.56272e-18
8.01862e-18
9.0997e-18
7.61233e-18
1.06685e-17
9.7077e-18
9.67519e-18
8.78363e-18
1.06594e-17
9.6478e-18
9.21885e-18
9.82343e-18
9.75968e-18
1.06305e-17
1.04266e-17
1.04275e-17
1.20583e-17
9.90924e-18
1.00916e-17
9.91945e-18
1.06785e-17
9.07596e-18
1.27561e-17
8.53187e-18
8.94583e-18
1.01392e-17
1.02117e-17
1.04639e-17
9.28112e-18
9.28354e-18
1.16013e-17
1.03916e-17
1.3407e-17
1.13801e-17
1.11262e-17
9.33861e-18
9.02714e-18
9.39386e-18
9.09837e-18
8.379e-18
9.50141e-18
9.36606e-18
9.06362e-18
8.66353e-18
1.01188e-17
1.13446e-17
1.00495e-17
9.64429e-18
1.01777e-17
9.36498e-18
1.13444e-17
9.50879e-18
1.03877e-17
9.42856e-18
1.01972e-17
1.01021e-17
9.9484e-18
9.58146e-18
8.7715e-18
1.04137e-17
8.07329e-18
8.64783e-18
9.65521e-18
8.45285e-18
7.93357e-18
1.16826e-17
1.09426e-17
8.37356e-18
7.33845e-18
9.31293e-18
9.59558e-18
9.00441e-18
1.0752e-17
1.0128e-17
9.65988e-18
1.03061e-17
1.12557e-17
8.66171e-18
8.4956e-18
8.32876e-18
7.68215e-18
8.66982e-18
8.57053e-18
9.49806e-18
9.68812e-18
8.44049e-18
9.49338e-18
1.01953e-17
8.54416e-18
9.24765e-18
1.00396e-17
9.80997e-18
1.02692e-17
8.08114e-18
8.41601e-18
9.36773e-18
9.58353e-18
9.75765e-18
1.03025e-17
8.44079e-18
2.10037e-17
1.90054e-17
2.09341e-17
2.47309e-17
1.95706e-17
1.86311e-17
1.85465e-17
1.63201e-17
2.14359e-17
2.09764e-17
1.60413e-17
1.4204e-17
1.84513e-17
1.5057e-17
1.88763e-17
2.32173e-17
1.923e-17
1.79033e-17
2.01429e-17
1.7451e-17
1.70767e-17
1.58616e-17
2.07094e-17
1.62284e-17
1.59696e-17
1.88823e-17
2.15773e-17
1.76412e-17
1.76995e-17
1.95098e-17
2.21735e-17
1.9611e-17
1.41634e-17
1.78836e-17
1.5497e-17
1.79327e-17
2.11581e-17
2.02769e-17
2.05026e-17
1.80329e-17
2.1169e-17
2.13859e-17
2.35298e-17
1.72765e-17
1.77038e-17
2.04894e-17
1.61536e-17
2.13423e-17
2.33977e-17
1.7481e-17
1.8521e-17
1.69536e-17
1.51789e-17
1.6982e-17
1.61008e-17
2.31176e-17
2.17176e-17
1.99771e-17
1.91225e-17
1.58007e-17
1.72472e-17
1.67806e-17
1.83096e-17
1.45482e-17
1.72383e-17
2.19613e-17
1.94073e-17
1.72691e-17
2.13527e-17
1.92549e-17
1.8318e-17
2.08341e-17
1.83859e-17
1.76132e-17
1.40083e-17
2.05961e-17
2.15789e-17
1.92332e-17
1.80746e-17
1.76047e-17
1.91257e-17
1.82982e-17
1.69566e-17
1.62796e-17
1.93351e-17
1.72567e-17
1.77957e-17
1.99018e-17
1.68651e-17
1.44618e-17
1.82493e-17
1.73766e-17
1.66373e-17
1.74745e-17
1.6834e-17
2.02753e-17
1.83804e-17
1.51801e-17
1.75333e-17
1.9222e-17
1.73179e-17
1.74568e-17
1.80714e-17
1.87442e-17
1.71522e-17
1.81396e-17
1.91507e-17
1.99977e-17
1.69021e-17
1.69708e-17
1.89921e-17
1.70015e-17
1.78386e-17
1.76417e-17
1.75752e-17
1.73476e-17
1.70511e-17
1.67728e-17
2.02867e-17
2.2923e-17
1.83682e-17
1.74994e-17
1.64142e-17
1.6626e-17
1.9119e-17
1.74197e-17
1.44254e-17
1.89846e-17
1.87097e-17
1.78315e-17
1.71044e-17
1.66963e-17
1.65763e-17
1.76283e-17
1.99644e-17
2.00611e-17
1.78902e-17
1.73893e-17
2.04689e-17
1.98299e-17
1.60955e-17
1.5877e-17
2.36677e-17
1.88466e-17
1.78401e-17
1.63487e-17
1.96719e-17
1.95919e-17
1.80915e-17
1.73594e-17
1.80612e-17
1.92365e-17
1.72211e-17
1.56893e-17
1.4552e-17
2.04648e-17
2.15916e-17
1.40627e-17
1.58642e-17
1.62498e-17
2.0024e-17
2.10786e-17
1.65619e-17
1.39789e-17
1.49269e-17
1.58388e-17
1.69622e-17
1.77967e-17
1.97368e-17
1.9671e-17
1.70027e-17
1.68131e-17
2.01258e-17
2.01897e-17
2.01921e-17
1.82239e-17
1.90488e-17
2.0695e-17
1.93611e-17
1.98448e-17
1.75164e-17
1.75322e-17
1.45147e-17
1.85257e-17
1.97459e-17
1.9255e-17
1.80275e-17
1.62468e-17
2.27917e-17
1.79899e-17
1.83021e-17
1.49174e-17
1.87666e-17
1.65858e-17
1.70728e-17
1.65045e-17
1.64374e-17
1.61578e-17
1.82417e-17
1.72037e-17
2.03282e-17
1.88668e-17
1.76251e-17
2.23777e-17
1.93073e-17
1.75133e-17
1.91472e-17
1.9915e-17
1.75624e-17
1.97456e-17
1.54679e-17
1.8911e-17
1.72247e-17
1.66798e-17
1.74878e-17
1.54206e-17
1.32632e-17
1.66878e-17
2.08815e-17
2.0789e-17
1.33978e-17
1.58114e-17
1.69605e-17
1.5033e-17
1.56133e-17
1.78956e-17
1.89778e-17
1.9185e-17
1.73113e-17
2.34977e-17
2.15935e-17
1.92735e-17
1.62028e-17
1.65199e-17
1.69712e-17
1.57372e-17
1.46436e-17
1.4804e-17
1.57066e-17
1.83765e-17
1.86953e-17
1.81585e-17
1.94775e-17
1.75512e-17
1.82277e-17
2.03843e-17
1.67723e-17
1.88738e-17
1.8291e-17
1.58979e-17
1.6908e-17
2.15376e-17
1.91889e-17
1.64364e-17
1.59631e-17
1.77674e-17
3.00488e-17
3.75117e-17
2.96279e-17
3.33096e-17
3.0016e-17
3.46646e-17
3.33652e-17
2.76776e-17
2.82561e-17
3.3391e-17
3.81367e-17
3.62685e-17
3.29726e-17
3.09838e-17
2.81193e-17
3.88485e-17
3.60028e-17
3.01351e-17
3.02878e-17
3.19533e-17
2.69029e-17
3.44801e-17
3.21472e-17
3.33661e-17
3.62683e-17
3.82889e-17
3.39829e-17
3.02913e-17
3.31524e-17
3.19582e-17
2.90056e-17
2.62913e-17
3.25513e-17
3.14197e-17
3.60832e-17
3.95457e-17
3.55884e-17
3.93553e-17
3.68588e-17
3.52174e-17
4.1539e-17
4.42523e-17
3.51457e-17
3.15897e-17
3.48425e-17
3.92206e-17
3.11998e-17
3.08359e-17
3.73224e-17
3.33303e-17
3.65726e-17
3.78354e-17
3.56705e-17
3.54136e-17
2.87533e-17
3.54194e-17
4.28485e-17
3.7628e-17
2.93408e-17
3.40161e-17
3.45006e-17
3.78816e-17
3.25122e-17
3.46688e-17
3.11271e-17
3.21219e-17
3.50049e-17
3.27491e-17
3.60191e-17
3.67723e-17
3.32152e-17
3.57928e-17
3.41806e-17
3.49535e-17
3.30491e-17
3.69811e-17
3.70997e-17
2.93678e-17
3.09945e-17
3.48046e-17
3.42651e-17
3.11258e-17
3.31485e-17
3.43581e-17
3.43446e-17
3.26546e-17
3.35032e-17
3.39339e-17
2.80316e-17
2.84333e-17
3.51778e-17
3.70867e-17
3.58587e-17
3.54785e-17
3.68423e-17
3.78401e-17
2.73193e-17
3.25837e-17
3.47127e-17
2.38385e-17
2.93063e-17
3.62867e-17
3.86149e-17
3.92881e-17
3.59483e-17
3.42422e-17
3.45918e-17
3.91298e-17
3.75105e-17
2.96371e-17
3.72778e-17
4.11295e-17
5.04751e-17
3.81826e-17
4.29283e-17
3.0464e-17
2.71005e-17
3.47406e-17
4.15594e-17
3.49005e-17
4.02377e-17
3.11821e-17
3.09525e-17
3.32057e-17
3.42947e-17
2.91722e-17
2.87336e-17
2.98953e-17
3.58352e-17
3.06796e-17
3.09006e-17
3.75884e-17
3.33615e-17
2.93271e-17
2.67035e-17
3.26104e-17
3.67689e-17
2.98676e-17
3.03947e-17
3.21176e-17
3.28891e-17
3.33884e-17
4.1199e-17
3.6579e-17
3.19805e-17
3.4007e-17
2.80624e-17
2.70966e-17
3.50779e-17
3.41379e-17
4.06726e-17
3.92216e-17
3.19554e-17
3.0006e-17
3.05512e-17
3.24064e-17
3.37004e-17
3.3217e-17
3.68691e-17
3.32112e-17
3.51911e-17
4.11707e-17
3.09114e-17
3.27727e-17
4.44257e-17
3.67679e-17
3.72399e-17
3.23098e-17
3.4849e-17
3.8429e-17
2.83521e-17
3.76087e-17
3.82494e-17
3.25512e-17
3.82352e-17
3.24178e-17
3.56296e-17
3.67887e-17
3.26415e-17
2.76922e-17
3.49151e-17
4.06033e-17
3.17547e-17
3.34957e-17
3.70134e-17
4.09521e-17
3.77692e-17
3.72092e-17
3.60169e-17
3.23404e-17
3.19257e-17
2.89459e-17
4.00582e-17
3.53684e-17
3.52568e-17
3.41654e-17
3.40235e-17
4.20249e-17
3.26707e-17
3.14433e-17
3.63024e-17
3.84128e-17
3.37686e-17
3.16457e-17
2.93483e-17
3.32942e-17
3.77897e-17
3.66343e-17
2.84381e-17
4.08952e-17
3.34691e-17
3.65296e-17
3.30023e-17
3.19579e-17
3.32134e-17
3.35762e-17
2.86181e-17
3.5864e-17
3.16797e-17
3.38445e-17
2.54579e-17
3.76885e-17
3.10484e-17
2.82721e-17
3.36446e-17
3.58877e-17
3.45719e-17
3.33942e-17
3.24154e-17
3.27251e-17
3.54517e-17
3.27754e-17
3.2716e-17
3.69789e-17
4.25523e-17
3.49871e-17
2.84145e-17
3.3416e-17
2.59555e-17
2.89686e-17
3.2257e-17
3.03081e-17
3.36301e-17
3.80116e-17
3.64528e-17
3.61418e-17
2.98232e-17
2.94164e-17
3.32612e-17
3.34527e-17
3.49837e-17
3.35565e-17
3.39025e-17
3.39762e-17
3.76949e-17
3.34873e-17
6.15713e-17
7.70112e-17
5.25104e-17
5.32234e-17
6.29702e-17
6.97575e-17
6.7485e-17
5.95572e-17
6.4843e-17
4.79935e-17
6.11233e-17
6.51022e-17
6.19767e-17
6.08816e-17
5.9632e-17
6.06399e-17
6.42346e-17
5.18478e-17
4.85146e-17
5.47539e-17
5.3346e-17
6.85862e-17
5.75278e-17
7.24891e-17
7.97669e-17
6.16808e-17
6.94517e-17
7.15943e-17
6.34294e-17
5.36014e-17
5.99588e-17
6.22227e-17
6.73944e-17
6.1809e-17
7.20253e-17
6.53347e-17
5.10904e-17
7.85718e-17
6.28296e-17
6.52012e-17
7.66078e-17
7.27159e-17
5.67285e-17
8.11309e-17
7.47088e-17
5.36672e-17
6.26766e-17
5.58185e-17
6.77724e-17
7.70755e-17
6.96948e-17
6.55866e-17
6.14483e-17
7.93931e-17
7.52643e-17
6.79882e-17
6.51385e-17
6.16352e-17
6.7844e-17
7.59657e-17
5.40668e-17
6.77181e-17
7.3581e-17
6.16822e-17
5.75751e-17
6.17233e-17
6.85305e-17
6.42348e-17
5.9821e-17
5.95789e-17
6.0292e-17
5.09048e-17
5.44312e-17
5.81204e-17
5.60742e-17
6.64772e-17
7.82087e-17
5.91039e-17
6.18451e-17
6.20531e-17
5.05677e-17
5.79307e-17
6.34286e-17
7.17061e-17
6.13074e-17
5.64341e-17
5.95053e-17
1.05892e-16
5.29394e-17
5.35938e-17
5.84318e-17
7.68514e-17
6.63576e-17
5.86359e-17
8.73551e-17
8.20661e-17
5.02969e-17
6.28336e-17
6.09999e-17
6.53581e-17
6.17727e-17
6.01482e-17
6.71972e-17
7.2581e-17
7.59432e-17
5.54902e-17
5.75949e-17
6.00772e-17
6.69838e-17
5.31199e-17
5.46466e-17
7.12964e-17
7.19899e-17
5.10186e-17
6.64813e-17
6.39697e-17
5.55492e-17
6.13541e-17
4.95192e-17
4.92315e-17
5.65533e-17
5.3704e-17
6.05179e-17
7.74244e-17
6.65085e-17
5.75088e-17
5.18901e-17
5.5109e-17
5.64538e-17
6.79841e-17
6.24452e-17
6.84269e-17
5.87601e-17
6.00724e-17
6.08562e-17
5.46702e-17
7.43251e-17
5.66864e-17
5.07838e-17
6.06253e-17
5.85915e-17
6.17008e-17
5.63896e-17
5.0903e-17
6.73674e-17
8.26427e-17
5.92131e-17
7.46935e-17
5.9753e-17
6.09353e-17
6.00686e-17
6.62851e-17
5.9405e-17
5.48954e-17
6.04835e-17
6.01873e-17
5.48398e-17
5.37673e-17
6.40438e-17
5.74249e-17
5.99661e-17
8.16572e-17
6.07122e-17
5.95249e-17
6.36423e-17
6.13947e-17
6.42269e-17
6.29857e-17
7.18942e-17
6.23835e-17
5.37464e-17
6.30169e-17
7.02093e-17
5.59614e-17
5.85673e-17
6.65691e-17
5.67795e-17
5.8392e-17
7.21263e-17
6.6569e-17
6.04276e-17
7.96813e-17
5.45814e-17
5.56166e-17
7.09987e-17
6.79516e-17
6.36277e-17
7.47307e-17
6.57608e-17
5.85238e-17
5.08025e-17
6.18343e-17
7.00503e-17
6.12653e-17
6.47933e-17
5.42639e-17
6.1647e-17
6.5075e-17
5.53927e-17
6.84578e-17
7.11406e-17
6.05761e-17
6.05099e-17
6.69354e-17
5.75781e-17
6.62295e-17
5.72544e-17
5.61087e-17
5.89576e-17
5.40913e-17
6.80937e-17
5.2187e-17
5.98432e-17
6.75035e-17
6.58058e-17
6.22368e-17
5.9576e-17
6.77697e-17
6.42815e-17
6.48029e-17
6.78087e-17
7.26792e-17
6.12521e-17
5.42443e-17
6.95479e-17
5.85601e-17
5.62483e-17
5.59362e-17
5.33075e-17
5.84372e-17
6.67343e-17
6.55802e-17
6.63826e-17
6.89168e-17
6.5172e-17
6.19438e-17
5.64106e-17
6.3668e-17
6.64944e-17
5.81385e-17
5.20867e-17
6.4106e-17
7.2357e-17
6.3845e-17
6.18166e-17
6.81036e-17
7.02433e-17
7.43248e-17
5.58545e-17
7.83248e-17
7.13744e-17
6.00033e-17
5.53319e-17
7.71798e-17
6.31309e-17
6.26694e-17
1.2585e-16
1.13e-16
1.21363e-16
1.10649e-16
1.12533e-16
1.39844e-16
1.3938e-16
8.6965e-17
1.22167e-16
1.13636e-16
1.13059e-16
1.11651e-16
1.13336e-16
1.08003e-16
1.23459e-16
1.04352e-16
1.13213e-16
9.42981e-17
1.08669e-16
1.27638e-16
1.44957e-16
1.13755e-16
1.29686e-16
1.47924e-16
1.08831e-16
1.11481e-16
1.21249e-16
1.15949e-16
1.02146e-16
1.0668e-16
1.44218e-16
1.39402e-16
1.36782e-16
1.34863e-16
1.08703e-16
1.33275e-16
1.02208e-16
1.11446e-16
1.26713e-16
1.19737e-16
1.16558e-16
1.10804e-16
1.22441e-16
1.36144e-16
1.35831e-16
1.01981e-16
1.39382e-16
1.17367e-16
1.01979e-16
1.11259e-16
1.27016e-16
1.53003e-16
1.16595e-16
1.18969e-16
1.24689e-16
1.06424e-16
1.33879e-16
1.5825e-16
1.51176e-16
1.25846e-16
1.21942e-16
1.15267e-16
1.21854e-16
9.27428e-17
1.03883e-16
1.09733e-16
1.36681e-16
1.30912e-16
1.06318e-16
1.08266e-16
1.06457e-16
1.17086e-16
1.08293e-16
1.36406e-16
1.22677e-16
1.27314e-16
1.40136e-16
1.37716e-16
1.30338e-16
1.00113e-16
9.46357e-17
1.68751e-16
1.25784e-16
1.32912e-16
1.19706e-16
1.27167e-16
9.20657e-17
1.0523e-16
1.16605e-16
1.22515e-16
1.16509e-16
1.28618e-16
1.02841e-16
1.12466e-16
1.06604e-16
1.00543e-16
1.29145e-16
1.34422e-16
1.27805e-16
1.2463e-16
1.12499e-16
1.11324e-16
1.28929e-16
1.20318e-16
1.36775e-16
1.05868e-16
1.03822e-16
1.04658e-16
1.20713e-16
1.25634e-16
1.18976e-16
1.18995e-16
1.26559e-16
1.06512e-16
1.36923e-16
1.30719e-16
1.11736e-16
1.13863e-16
1.13178e-16
1.01258e-16
1.02053e-16
9.59072e-17
1.03767e-16
1.12795e-16
1.15981e-16
1.23533e-16
1.17972e-16
1.075e-16
1.24569e-16
1.1418e-16
1.16397e-16
1.28145e-16
1.12781e-16
1.31945e-16
1.14976e-16
1.18485e-16
1.26095e-16
1.10819e-16
9.62356e-17
1.26693e-16
1.28146e-16
1.15861e-16
1.05403e-16
1.06188e-16
1.2067e-16
1.21927e-16
1.33456e-16
1.29122e-16
1.2226e-16
1.10044e-16
1.13092e-16
1.37333e-16
1.35268e-16
1.17851e-16
1.32089e-16
1.05933e-16
1.22257e-16
1.09293e-16
1.15403e-16
1.25147e-16
1.23982e-16
1.16002e-16
1.46861e-16
1.24812e-16
9.87773e-17
9.76962e-17
1.3007e-16
1.08571e-16
1.0036e-16
1.20607e-16
1.22218e-16
1.07545e-16
1.09808e-16
1.15587e-16
1.24449e-16
1.44651e-16
1.50526e-16
1.33284e-16
1.33171e-16
1.32714e-16
1.4001e-16
1.18105e-16
1.06814e-16
1.20307e-16
1.47481e-16
1.28874e-16
1.2319e-16
1.24425e-16
1.26126e-16
1.28754e-16
1.09129e-16
1.14076e-16
1.11139e-16
1.21078e-16
1.2605e-16
1.01318e-16
1.23557e-16
1.05438e-16
1.03614e-16
1.05112e-16
1.09606e-16
1.2262e-16
1.08283e-16
1.25956e-16
9.67785e-17
1.27405e-16
1.44277e-16
1.21929e-16
1.21741e-16
1.17004e-16
1.28086e-16
1.01089e-16
1.02273e-16
1.02991e-16
1.14409e-16
1.41622e-16
1.21463e-16
1.33278e-16
1.28686e-16
1.28467e-16
1.43253e-16
1.31941e-16
1.23757e-16
1.07307e-16
1.14227e-16
1.1163e-16
1.19792e-16
1.05439e-16
1.13694e-16
1.31294e-16
1.14947e-16
1.09634e-16
1.16982e-16
1.33325e-16
1.08214e-16
1.09136e-16
1.14383e-16
1.24255e-16
1.36939e-16
1.17728e-16
1.29732e-16
1.33848e-16
1.16202e-16
1.08263e-16
1.29223e-16
1.25519e-16
1.03115e-16
1.22902e-16
1.22556e-16
1.33493e-16
1.35022e-16
1.12252e-16
1.04634e-16
9.38691e-17
1.28075e-16
1.18604e-16
2.23902e-16
2.25259e-16
2.06826e-16
1.87327e-16
2.28555e-16
2.72791e-16
2.17682e-16
2.01797e-16
2.48256e-16
2.5596e-16
2.10871e-16
1.88192e-16
1.71519e-16
2.29527e-16
2.04191e-16
1.72566e-16
2.65863e-16
2.35556e-16
2.04661e-16
2.03581e-16
2.2112e-16
1.68695e-16
2.18346e-16
2.4757e-16
2.37037e-16
2.62438e-16
2.13927e-16
2.14357e-16
1.83891e-16
2.19945e-16
2.25151e-16
2.08854e-16
2.28261e-16
2.07893e-16
1.92864e-16
2.67103e-16
2.41289e-16
2.52839e-16
2.30975e-16
2.27999e-16
1.91617e-16
2.10676e-16
2.37218e-16
1.90259e-16
2.38552e-16
2.09231e-16
2.14524e-16
1.82813e-16
2.1852e-16
2.46898e-16
2.58288e-16
2.65833e-16
2.44807e-16
2.16126e-16
2.3218e-16
2.3072e-16
2.12446e-16
2.07736e-16
2.40728e-16
2.41025e-16
2.03903e-16
2.07216e-16
1.92443e-16
2.07508e-16
2.07094e-16
1.89746e-16
2.27204e-16
2.0311e-16
2.44835e-16
2.39044e-16
2.37355e-16
2.09395e-16
2.24532e-16
2.20348e-16
2.04207e-16
2.01287e-16
2.38088e-16
2.25761e-16
3.27361e-16
2.68716e-16
2.29284e-16
2.38335e-16
1.89068e-16
2.0747e-16
2.04079e-16
2.2549e-16
2.19167e-16
1.81441e-16
1.87539e-16
2.19437e-16
2.40449e-16
2.44053e-16
1.95593e-16
2.14049e-16
2.48736e-16
2.12419e-16
2.34401e-16
2.2103e-16
2.33279e-16
2.30187e-16
2.51758e-16
2.38786e-16
2.56518e-16
2.6267e-16
2.29195e-16
2.3833e-16
2.24821e-16
1.9623e-16
2.02699e-16
1.91084e-16
2.43678e-16
2.43442e-16
2.22021e-16
1.80716e-16
1.80139e-16
1.8536e-16
2.4661e-16
2.39195e-16
2.09403e-16
1.78163e-16
2.0626e-16
1.96155e-16
2.08788e-16
2.12745e-16
1.66516e-16
2.36009e-16
2.06118e-16
1.93742e-16
1.95154e-16
1.90903e-16
1.71449e-16
2.2179e-16
2.31759e-16
2.40958e-16
2.31802e-16
2.02932e-16
2.06822e-16
2.34151e-16
2.63255e-16
2.2035e-16
2.25998e-16
2.12375e-16
2.05385e-16
2.12333e-16
1.7945e-16
2.34914e-16
2.55929e-16
2.07121e-16
2.86956e-16
2.36049e-16
2.3884e-16
2.28841e-16
2.33992e-16
2.50384e-16
2.36869e-16
2.11126e-16
2.02384e-16
1.82098e-16
2.01924e-16
2.53641e-16
2.7755e-16
2.55077e-16
2.34682e-16
2.3933e-16
2.02094e-16
2.09919e-16
2.20391e-16
2.06806e-16
2.21718e-16
2.12674e-16
2.23422e-16
2.21584e-16
2.30654e-16
2.19788e-16
2.4676e-16
2.36664e-16
2.53225e-16
1.87323e-16
2.16655e-16
2.20271e-16
2.14555e-16
2.01925e-16
1.84852e-16
2.28789e-16
2.4985e-16
1.7396e-16
1.97725e-16
2.05914e-16
1.93321e-16
1.8934e-16
2.09877e-16
2.22251e-16
1.91186e-16
2.41485e-16
2.18199e-16
2.02218e-16
2.48124e-16
2.30899e-16
2.01987e-16
2.15822e-16
2.08355e-16
1.97133e-16
2.18007e-16
2.04544e-16
1.87347e-16
2.43643e-16
2.43354e-16
1.83848e-16
2.32005e-16
2.62318e-16
2.28175e-16
2.07227e-16
2.35665e-16
2.00386e-16
2.55015e-16
2.4334e-16
2.26065e-16
2.60033e-16
2.73671e-16
1.85608e-16
2.1322e-16
1.9537e-16
2.30512e-16
2.37033e-16
2.25801e-16
2.38782e-16
2.38036e-16
2.02448e-16
2.40036e-16
2.39775e-16
2.40337e-16
2.93839e-16
2.27178e-16
2.29916e-16
2.2801e-16
2.308e-16
2.50894e-16
2.47144e-16
2.38718e-16
2.09422e-16
2.50154e-16
2.1712e-16
2.23763e-16
2.20978e-16
2.08999e-16
1.78026e-16
2.19842e-16
1.83409e-16
2.41079e-16
2.61124e-16
2.61122e-16
2.26591e-16
2.03543e-16
1.92529e-16
2.70219e-16
2.62809e-16
4.52761e-16
3.74161e-16
3.42748e-16
3.36019e-16
4.48943e-16
4.62076e-16
3.30358e-16
4.16729e-16
4.6609e-16
4.39442e-16
4.78705e-16
5.09664e-16
3.38582e-16
4.75153e-16
5.06277e-16
4.43378e-16
4.92359e-16
4.39383e-16
3.4772e-16
4.09428e-16
4.08361e-16
3.52297e-16
3.7987e-16
4.11338e-16
4.61653e-16
5.01037e-16
4.33521e-16
3.68947e-16
3.84126e-16
4.06245e-16
3.87571e-16
3.97993e-16
4.75289e-16
4.54466e-16
4.28717e-16
4.16126e-16
4.56156e-16
4.59889e-16
3.81457e-16
3.17873e-16
4.09348e-16
3.69774e-16
3.23665e-16
4.72187e-16
4.62162e-16
4.62662e-16
4.15773e-16
3.84347e-16
4.0491e-16
4.34182e-16
4.4682e-16
4.45371e-16
4.71512e-16
4.25544e-16
3.61501e-16
4.16319e-16
3.75505e-16
3.10705e-16
3.91851e-16
3.86816e-16
3.76574e-16
3.94815e-16
3.81488e-16
3.7696e-16
3.83406e-16
3.40956e-16
3.95912e-16
3.82089e-16
4.18731e-16
4.96198e-16
4.58908e-16
3.37454e-16
3.65509e-16
4.1784e-16
4.18244e-16
4.10268e-16
4.75973e-16
4.0264e-16
4.03289e-16
3.89721e-16
3.39561e-16
3.75991e-16
3.96839e-16
4.43618e-16
4.21335e-16
3.71166e-16
3.95045e-16
3.82863e-16
3.39972e-16
4.12635e-16
3.98947e-16
3.8317e-16
3.85476e-16
4.04474e-16
5.37535e-16
4.266e-16
3.66308e-16
3.83528e-16
4.19763e-16
4.14711e-16
4.89861e-16
4.93078e-16
4.22663e-16
4.54273e-16
4.49806e-16
4.25002e-16
3.71238e-16
4.14268e-16
4.7651e-16
4.50722e-16
3.98114e-16
3.90458e-16
4.17448e-16
3.36098e-16
3.59003e-16
3.07858e-16
3.49497e-16
4.08439e-16
4.17518e-16
3.5806e-16
3.8486e-16
3.82688e-16
3.63114e-16
3.93139e-16
3.21014e-16
3.37229e-16
3.79079e-16
3.91212e-16
4.76651e-16
4.00731e-16
3.97049e-16
3.40887e-16
3.9269e-16
4.08708e-16
3.82436e-16
3.61225e-16
3.97169e-16
4.46052e-16
3.30511e-16
3.53519e-16
4.57642e-16
5.12921e-16
5.00516e-16
5.31754e-16
4.23763e-16
4.37754e-16
4.18378e-16
3.76e-16
4.28438e-16
3.57087e-16
4.13654e-16
4.23197e-16
4.63886e-16
4.13468e-16
4.94803e-16
5.53329e-16
4.05673e-16
3.95722e-16
3.63569e-16
3.4683e-16
4.31788e-16
4.00047e-16
3.43368e-16
4.32822e-16
4.61464e-16
4.80638e-16
3.83691e-16
4.14846e-16
3.58545e-16
4.00796e-16
4.45671e-16
4.39163e-16
4.40241e-16
4.04843e-16
3.83744e-16
4.25696e-16
3.79159e-16
4.84615e-16
4.1649e-16
4.00643e-16
3.7837e-16
3.86286e-16
4.2685e-16
4.57717e-16
3.52121e-16
3.01561e-16
4.04443e-16
4.15117e-16
4.72302e-16
4.8824e-16
4.41454e-16
3.90751e-16
3.77971e-16
4.42243e-16
4.58904e-16
3.81656e-16
3.99737e-16
4.00039e-16
3.8593e-16
3.95175e-16
3.55873e-16