# vtk DataFile Version 1.0
Ion Density - Current Sheet
ASCII
DATASET STRUCTURED_POINTS
DIMENSIONS 256 128 1
ORIGIN 0 0 0
SPACING 0.15625 0.15625 1
POINT_DATA 32768
SCALARS rhoi float
LOOKUP_TABLE default
1.66944e-18
1.4032e-18
1.3351e-18
1.6842e-18
1.48034e-18
2.00267e-18
1.73545e-18
1.83933e-18
3.20047e-18
2.65538e-18
1.40749e-18
1.53874e-18
1.46498e-18
1.7386e-18
1.46737e-18
1.24711e-18
1.72526e-18
1.92273e-18
1.39896e-18
1.5151e-18
1.62989e-18
2.29815e-18
2.11392e-18
1.50773e-18
2.11094e-18
1.42907e-18
1.79244e-18
2.10722e-18
1.98494e-18
1.69168e-18
1.30321e-18
1.5755e-18
1.5595e-18
1.67773e-18
1.43156e-18
1.73914e-18
1.69802e-18
1.47402e-18
1.9471e-18
1.93834e-18
1.70761e-18
1.80853e-18
1.31121e-18
1.31985e-18
1.50573e-18
1.95239e-18
1.31006e-18
2.8628e-18
2.62444e-18
2.20022e-18
1.48914e-18
1.92188e-18
1.52037e-18
2.60522e-18
1.91204e-18
1.5768e-18
1.53526e-18
1.70998e-18
1.71327e-18
1.64958e-18
1.33843e-18
1.71361e-18
2.75845e-18
2.557e-18
1.75587e-18
1.291e-18
1.52129e-18
1.45807e-18
1.77494e-18
2.06427e-18
1.78231e-18
1.63402e-18
1.85744e-18
1.64771e-18
1.58445e-18
2.22213e-18
2.28503e-18
1.16338e-18
1.71978e-18
1.51577e-18
1.52316e-18
1.62416e-18
2.50345e-18
2.10738e-18
2.12595e-18
2.52747e-18
1.74344e-18
2.03605e-18
1.88245e-18
1.64321e-18
1.40796e-18
1.47288e-18
1.88676e-18
1.33046e-18
1.32843e-18
1.48705e-18
2.24466e-18
1.75126e-18
1.82412e-18
1.64521e-18
1.33136e-18
1.76711e-18
1.39457e-18
1.26696e-18
1.76782e-18
1.57806e-18
1.86876e-18
1.84864e-18
1.50752e-18
1.50117e-18
1.91214e-18
1.51263e-18
1.91644e-18
3.14244e-18
1.36742e-18
2.13296e-18
1.47428e-18
1.5198e-18
2.19804e-18
2.01556e-18
2.22869e-18
1.92628e-18
2.25995e-18
2.07875e-18
2.29221e-18
1.68844e-18
1.74113e-18
1.72785e-18
1.48328e-18
1.47015e-18
1.88389e-18
1.55703e-18
1.58849e-18
2.16855e-18
2.63973e-18
1.81861e-18
1.53641e-18
1.94833e-18
1.85233e-18
2.5743e-18
1.333e-18
2.00146e-18
1.59007e-18
1.7713e-18
1.53349e-18
2.13354e-18
1.90186e-18
1.60438e-18
1.32272e-18
1.72736e-18
1.73717e-18
1.57348e-18
1.70167e-18
1.67029e-18
1.59279e-18
1.73106e-18
2.0133e-18
2.15991e-18
1.82195e-18
1.77222e-18
1.83137e-18
1.86821e-18
2.07916e-18
2.10309e-18
2.06949e-18
2.19293e-18
1.31125e-18
2.34822e-18
1.79079e-18
1.82492e-18
1.65975e-18
1.86923e-18
1.93001e-18
2.18646e-18
1.68247e-18
1.55512e-18
1.91957e-18
1.58162e-18
1.61429e-18
1.588e-18
1.24845e-18
1.71225e-18
2.7653e-18
2.02485e-18
2.31252e-18
2.30279e-18
1.49938e-18
1.78772e-18
2.833e-18
2.55612e-18
2.10701e-18
2.23893e-18
2.27162e-18
1.6067e-18
1.47338e-18
1.7161e-18
1.99248e-18
1.70817e-18
1.73337e-18
2.12122e-18
1.86248e-18
1.92092e-18
1.91098e-18
2.04034e-18
2.72244e-18
2.95334e-18
1.63582e-18
1.81229e-18
1.73694e-18
2.25381e-18
1.56788e-18
1.55785e-18
1.4923e-18
1.85574e-18
2.08004e-18
2.4386e-18
2.03575e-18
1.99889e-18
1.93103e-18
1.48741e-18
1.94467e-18
1.84525e-18
1.69715e-18
2.10385e-18
1.59605e-18
1.66231e-18
1.17901e-18
1.80876e-18
1.64279e-18
1.67659e-18
1.29762e-18
1.34961e-18
1.44661e-18
1.86589e-18
2.11813e-18
1.93042e-18
1.51588e-18
1.23377e-18
1.64781e-18
1.44303e-18
1.47662e-18
1.83354e-18
1.50755e-18
1.57835e-18
1.61793e-18
2.21114e-18
1.74481e-18
1.01235e-18
1.773e-18
2.42558e-18
1.9759e-18
1.7971e-18
1.61838e-18
2.15864e-18
1.22284e-18
1.21996e-18
2.65657e-18
2.45457e-18
2.49925e-18
1.94058e-18
2.23645e-18
2.6006e-18
2.97835e-18
2.69594e-18
2.94339e-18
2.74087e-18
2.26693e-18
2.41206e-18
3.08219e-18
2.87231e-18
2.56526e-18
2.77892e-18
2.80001e-18
2.57742e-18
2.67032e-18
2.3944e-18
3.0867e-18
2.75914e-18
3.07984e-18
3.17414e-18
2.89218e-18
2.48675e-18
2.60778e-18
3.32157e-18
3.58511e-18
3.14491e-18
2.32866e-18
2.82013e-18
2.67959e-18
2.92404e-18
3.01005e-18
2.85319e-18
2.59386e-18
3.03742e-18
2.52084e-18
2.35711e-18
3.15254e-18
3.05684e-18
2.88859e-18
2.649e-18
2.22046e-18
3.71049e-18
2.52431e-18
2.45062e-18
2.95481e-18
2.9294e-18
2.45948e-18
2.40511e-18
2.56789e-18
3.09844e-18
2.81216e-18
2.63027e-18
2.49061e-18
2.64364e-18
3.55124e-18
2.90041e-18
2.9928e-18
3.25045e-18
3.52496e-18
3.20969e-18
2.863e-18
3.06091e-18
2.8444e-18
2.52817e-18
2.97529e-18
2.24922e-18
3.20289e-18
2.82866e-18
2.97169e-18
3.10576e-18
2.47708e-18
2.3071e-18
2.51541e-18
2.89955e-18
2.84172e-18
2.58499e-18
3.268e-18
2.64668e-18
3.51002e-18
2.4168e-18
3.06393e-18
3.69012e-18
2.75981e-18
2.74738e-18
2.83549e-18
2.67864e-18
2.7526e-18
2.43291e-18
2.07843e-18
2.54211e-18
2.46434e-18
2.76004e-18
3.12853e-18
2.82077e-18
2.55073e-18
2.82032e-18
2.44499e-18
2.04216e-18
2.4545e-18
2.64285e-18
1.96246e-18
2.55327e-18
2.89349e-18
2.89112e-18
2.95981e-18
3.14803e-18
2.95805e-18
2.52628e-18
2.32089e-18
3.0349e-18
3.01051e-18
3.5446e-18
2.92055e-18
2.844e-18
3.1222e-18
3.25395e-18
3.36737e-18
2.8549e-18
2.67779e-18
2.58345e-18
2.72284e-18
2.35361e-18
2.20624e-18
2.75155e-18
3.06175e-18
3.00308e-18
3.53178e-18
2.64942e-18
2.23435e-18
2.55311e-18
2.86989e-18
2.21864e-18
2.71397e-18
2.97267e-18
2.82236e-18
3.56599e-18
2.49521e-18
2.48542e-18
2.99073e-18
2.56867e-18
2.38337e-18
2.70495e-18
3.39736e-18
2.54428e-18
2.16528e-18
3.37454e-18
2.13827e-18
2.27983e-18
3.27157e-18
2.88652e-18
2.62735e-18
2.82239e-18
3.22124e-18
2.9629e-18
4.80007e-18
2.66741e-18
3.02035e-18
3.42557e-18
2.7685e-18
3.19196e-18
2.82862e-18
2.89418e-18
2.99453e-18
2.92034e-18
2.28273e-18
2.56526e-18
2.64373e-18
2.70581e-18
2.73069e-18
2.98957e-18
2.73353e-18
2.75052e-18
3.27897e-18
3.48182e-18
2.62882e-18
3.045e-18
2.7628e-18
2.78738e-18
2.47323e-18
3.46522e-18
3.65559e-18
2.64605e-18
2.63813e-18
2.60464e-18
2.63382e-18
3.1999e-18
2.24338e-18
2.5925e-18
3.60645e-18
2.7189e-18
2.60059e-18
2.39879e-18
2.53655e-18
2.78782e-18
3.3022e-18
2.96791e-18
2.84276e-18
3.12927e-18
2.58726e-18
3.33043e-18
3.55523e-18
3.01299e-18
2.66943e-18
2.65771e-18
2.30398e-18
2.48898e-18
2.62716e-18
2.44363e-18
2.1801e-18
2.52536e-18
2.88172e-18
2.61811e-18
2.74169e-18
3.09475e-18
3.1029e-18
2.76896e-18
2.75175e-18
2.94733e-18
2.48904e-18
3.14517e-18
2.79033e-18
2.68387e-18
2.0355e-18
2.74173e-18
2.78306e-18
2.77786e-18
1.95308e-18
2.84106e-18
2.46354e-18
2.7872e-18
2.86203e-18
2.35055e-18
2.80157e-18
3.27446e-18
3.5286e-18
3.65142e-18
2.91879e-18
2.83059e-18
2.94757e-18
2.54221e-18
2.42811e-18
2.59846e-18
2.81991e-18
2.68005e-18
3.00623e-18
3.46119e-18
3.15786e-18
2.60913e-18
2.4719e-18
2.8118e-18
2.77138e-18
2.53021e-18
5.0259e-18
4.71382e-18
5.15692e-18
4.24659e-18
5.48632e-18
4.6628e-18
5.43355e-18
4.50054e-18
4.04772e-18
4.37012e-18
3.94809e-18
4.39538e-18
5.19818e-18
5.86373e-18
5.24903e-18
5.50923e-18
6.56851e-18
4.23023e-18
6.17112e-18
5.79066e-18
6.43828e-18
5.4823e-18
4.45774e-18
4.80192e-18
5.71456e-18
5.59781e-18
4.81639e-18
5.15503e-18
4.52428e-18
4.71753e-18
5.14512e-18
4.74104e-18
4.27978e-18
5.61326e-18
5.37841e-18
6.54294e-18
6.20421e-18
5.77792e-18
4.22512e-18
4.69446e-18
4.74939e-18
4.80264e-18
6.08684e-18
6.19271e-18
4.24887e-18
4.64675e-18
5.72252e-18
5.25534e-18
6.64402e-18
5.96578e-18
5.60427e-18
4.65138e-18
4.02272e-18
5.47523e-18
5.57764e-18
4.51802e-18
4.36192e-18
5.13658e-18
5.50828e-18
5.06645e-18
4.53268e-18
7.34211e-18
6.54569e-18
4.44091e-18
5.42711e-18
4.94916e-18
5.79553e-18
5.2636e-18
4.93231e-18
5.33578e-18
5.66768e-18
4.87418e-18
6.02317e-18
5.17942e-18
4.98986e-18
5.36576e-18
4.57698e-18
5.26746e-18
5.33929e-18
5.13941e-18
4.88833e-18
4.87948e-18
4.85714e-18
5.15106e-18
5.69512e-18
5.58421e-18
5.16717e-18
4.96856e-18
4.91534e-18
5.14029e-18
5.73649e-18
5.68609e-18
5.20502e-18
5.42727e-18
5.56651e-18
4.5261e-18
4.39561e-18
5.62914e-18
4.89344e-18
5.17394e-18
5.27693e-18
6.74586e-18
5.51094e-18
5.03385e-18
4.54838e-18
4.34438e-18
4.45071e-18
5.09503e-18
5.01903e-18
4.56032e-18
5.22125e-18
4.97009e-18
5.34315e-18
5.26963e-18
8.84946e-18
6.9435e-18
6.28434e-18
5.8679e-18
6.26371e-18
5.26803e-18
6.66696e-18
5.1497e-18
6.5166e-18
4.82636e-18
5.29472e-18
5.44948e-18
5.28829e-18
5.40222e-18
5.69015e-18
6.47152e-18
5.5238e-18
5.06298e-18
4.34156e-18
3.99102e-18
4.45152e-18
4.52448e-18
4.62975e-18
5.16972e-18
4.77777e-18
4.86641e-18
4.79784e-18
5.00519e-18
5.21436e-18
4.94913e-18
5.47394e-18
5.14025e-18
5.72128e-18
4.99786e-18
5.25247e-18
4.13395e-18
3.82249e-18
4.67731e-18
5.1197e-18
5.44875e-18
4.6154e-18
4.89606e-18
5.22685e-18
4.08064e-18
5.35922e-18
5.07416e-18
6.50476e-18
4.80926e-18
5.2646e-18
4.91972e-18
4.90123e-18
4.75724e-18
5.13598e-18
5.66247e-18
5.13851e-18
5.32667e-18
5.29274e-18
6.56597e-18
7.98262e-18
5.49524e-18
4.49658e-18
4.75563e-18
4.4989e-18
4.50915e-18
5.47971e-18
3.83541e-18
3.93076e-18
4.34752e-18
4.39335e-18
5.01894e-18
5.46686e-18
4.92549e-18
4.88231e-18
5.02656e-18
5.90632e-18
5.25529e-18
4.91188e-18
4.52982e-18
5.61486e-18
4.81851e-18
5.80878e-18
4.8088e-18
5.00383e-18
4.89607e-18
5.28891e-18
4.74223e-18
4.82856e-18
5.45677e-18
5.47965e-18
5.50855e-18
5.99189e-18
5.90656e-18
6.17943e-18
4.36432e-18
5.13774e-18
4.65113e-18
4.71516e-18
3.49111e-18
4.45171e-18
4.75809e-18
5.0501e-18
5.12677e-18
4.94064e-18
4.67371e-18
5.37843e-18
4.73121e-18
4.28072e-18
6.12695e-18
4.45674e-18
5.19007e-18
4.39221e-18
5.155e-18
5.7948e-18
5.1766e-18
5.13835e-18
5.28863e-18
4.06592e-18
5.49424e-18
5.53364e-18
5.11563e-18
4.2695e-18
4.42763e-18
5.27498e-18
6.15845e-18
5.62518e-18
4.65391e-18
4.37138e-18
4.20186e-18
5.0311e-18
5.41837e-18
4.71037e-18
5.24073e-18
6.74591e-18
5.59243e-18
6.03743e-18
5.5783e-18
5.65455e-18
5.08835e-18
4.52356e-18
5.04605e-18
5.90842e-18
5.34296e-18
1.1578e-17
9.44466e-18
1.11523e-17
1.18926e-17
1.05028e-17
8.63449e-18
8.76116e-18
7.82512e-18
1.02638e-17
9.70958e-18
9.43383e-18
7.22962e-18
9.24799e-18
9.14047e-18
1.08697e-17
9.04696e-18
1.01487e-17
1.13196e-17
1.05294e-17
9.40366e-18
9.03045e-18
8.51632e-18
8.2066e-18
7.98956e-18
8.92623e-18
9.90431e-18
1.03817e-17
1.07852e-17
9.34626e-18
9.08139e-18
1.03666e-17
1.13931e-17
9.25064e-18
1.06434e-17
8.44044e-18
1.002e-17
1.0899e-17
1.00388e-17
1.11951e-17
9.3389e-18
9.50376e-18
8.33277e-18
1.03132e-17
1.19693e-17
9.06779e-18
9.37208e-18
9.28488e-18
1.15113e-17
1.04816e-17
9.41573e-18
8.9961e-18
9.03702e-18
8.73971e-18
1.09362e-17
8.34358e-18
1.18939e-17
1.12503e-17
9.98265e-18
8.95827e-18
8.66942e-18
7.53667e-18
8.63186e-18
8.56707e-18
1.01486e-17
9.42791e-18
1.06155e-17
9.53204e-18
9.65524e-18
1.0391e-17
1.09262e-17
9.77373e-18
9.46944e-18
9.50719e-18
1.15849e-17
8.68166e-18
8.71507e-18
1.00982e-17
9.09447e-18
8.61846e-18
1.14012e-17
1.13797e-17
1.00265e-17
8.01132e-18
7.52259e-18
9.10675e-18
8.57873e-18
8.67219e-18
1.00965e-17
8.38614e-18
9.09899e-18
1.01473e-17
9.13473e-18
8.18708e-18
1.18299e-17
1.03381e-17
1.11723e-17
1.0844e-17
8.45605e-18
1.05367e-17
9.28928e-18
1.18389e-17
1.14312e-17
1.03683e-17
8.93378e-18
8.25999e-18
8.09936e-18
9.26826e-18
1.00528e-17
8.98801e-18
1.01478e-17
1.12959e-17
8.50234e-18
1.01678e-17
9.59045e-18
1.01759e-17
9.32816e-18
9.15894e-18
9.4005e-18
1.37748e-17
1.25479e-17
1.09892e-17
1.05768e-17
8.60241e-18
7.62782e-18
8.40196e-18
1.05785e-17
1.0901e-17
1.05876e-17
1.08757e-17
9.65697e-18
6.66879e-18
7.677e-18
9.51081e-18
1.00728e-17
1.08415e-17
1.08874e-17
6.82035e-18
9.3899e-18
1.18466e-17
1.1667e-17
9.88693e-18
9.95624e-18
9.96995e-18
9.3506e-18
1.15987e-17
9.58266e-18
1.08276e-17
1.06767e-17
9.81541e-18
9.17118e-18
8.6051e-18
8.92134e-18
8.65411e-18
9.26801e-18
8.93919e-18
1.32635e-17
9.79383e-18
7.55943e-18
9.10385e-18
7.66596e-18
9.88568e-18
1.19087e-17
8.88542e-18
8.64249e-18
9.80642e-18
9.64113e-18
8.50968e-18
9.54068e-18
1.03847e-17
1.04951e-17
1.087e-17
9.39307e-18
1.10289e-17
9.26435e-18
1.12081e-17
1.07741e-17
9.65402e-18
1.00351e-17
1.32334e-17
8.65479e-18
8.17456e-18
9.95615e-18
1.02515e-17
1.02948e-17
1.03158e-17
8.91572e-18
1.20315e-17
1.02456e-17
1.17576e-17
1.26428e-17
1.17061e-17
9.11385e-18
9.59338e-18
8.77295e-18
8.78694e-18
8.56417e-18
9.90669e-18
8.05175e-18
9.44066e-18
8.94058e-18
1.01298e-17
1.13279e-17
1.02158e-17
9.34051e-18
9.3968e-18
9.12287e-18
1.08912e-17
9.91231e-18
1.08591e-17
9.16103e-18
1.07872e-17
1.05554e-17
9.76029e-18
1.06949e-17
8.20943e-18
8.58272e-18
8.1643e-18
8.63029e-18
1.01458e-17
9.69246e-18
8.1752e-18
1.00656e-17
1.10355e-17
8.21218e-18
6.97883e-18
7.83168e-18
9.53088e-18
9.06063e-18
9.7855e-18
1.30909e-17
1.00364e-17
1.01214e-17
1.1236e-17
7.86804e-18
9.03476e-18
8.31276e-18
7.23086e-18
8.16944e-18
8.29361e-18
9.43912e-18
9.23033e-18
8.91786e-18
9.72805e-18
1.00224e-17
9.01369e-18
1.01881e-17
8.7743e-18
1.00007e-17
9.34092e-18
7.96897e-18
8.85146e-18
9.6678e-18
1.09495e-17
9.37312e-18
8.96941e-18
8.03704e-18
1.99273e-17
1.88054e-17
2.01847e-17
2.4416e-17
1.6786e-17
1.82369e-17
1.90224e-17
1.64062e-17
1.95184e-17
2.33004e-17
2.23466e-17
1.49472e-17
1.78801e-17
1.4333e-17
1.88584e-17
2.38896e-17
2.07721e-17
1.69515e-17
2.10241e-17
1.81378e-17
1.66864e-17
1.554e-17
2.08235e-17
1.54008e-17
1.6911e-17
1.97185e-17
2.02326e-17
1.85545e-17
1.75326e-17
1.83411e-17
2.0807e-17
1.81101e-17
1.41574e-17
1.99105e-17
1.48762e-17
2.0357e-17
2.08963e-17
1.87708e-17
1.83753e-17
1.9359e-17
2.3395e-17
2.38468e-17
2.21875e-17
1.57474e-17
1.7193e-17
2.57857e-17
1.65329e-17
2.1674e-17
2.56623e-17
1.7406e-17
2.09508e-17
1.689e-17
1.51305e-17
1.71789e-17
1.37177e-17
2.62336e-17
2.18876e-17
2.42008e-17
1.86678e-17
1.60709e-17
1.75665e-17
1.64842e-17
1.72946e-17
1.60031e-17
1.70605e-17
2.29187e-17
2.0712e-17
1.60262e-17
2.08934e-17
2.13489e-17
1.95751e-17
2.09104e-17
1.88242e-17
1.79759e-17
1.39539e-17
2.38775e-17
2.06631e-17
1.98424e-17
1.70611e-17
1.76859e-17
1.77547e-17
1.74185e-17
1.64458e-17
1.67639e-17
1.83478e-17
1.73385e-17
1.73681e-17
2.29006e-17
1.67238e-17
1.33544e-17
1.75484e-17
1.88551e-17
1.68663e-17
1.93533e-17
1.68597e-17
2.01981e-17
1.70461e-17
1.48697e-17
1.88433e-17
1.67894e-17
1.61426e-17
1.93701e-17
1.82113e-17
2.09413e-17
1.67736e-17
1.78422e-17
1.86086e-17
2.08321e-17
1.78807e-17
1.60891e-17
1.81586e-17
1.67138e-17
1.86364e-17
1.80543e-17
1.82115e-17
1.8031e-17
1.56308e-17
1.60033e-17
2.19821e-17
2.34451e-17
1.73842e-17
1.68948e-17
1.6643e-17
1.62224e-17
1.81885e-17
1.64716e-17
1.38994e-17
1.60661e-17
1.9205e-17
1.71348e-17
1.70087e-17
1.7899e-17
1.59248e-17
1.70832e-17
1.88415e-17
1.91443e-17
1.77158e-17
1.80335e-17
2.05522e-17
1.92376e-17
1.6356e-17
1.66772e-17
2.56676e-17
2.22134e-17
1.62515e-17
1.47897e-17
1.79287e-17
1.9461e-17
1.75544e-17
1.69181e-17
1.86589e-17
1.89109e-17
1.59052e-17
1.62885e-17
1.46898e-17
1.85087e-17
2.11271e-17
1.34186e-17
1.6972e-17
1.6714e-17
1.79032e-17
1.97195e-17
1.56122e-17
1.3424e-17
1.60384e-17
1.83882e-17
1.8966e-17
1.70753e-17
2.08598e-17
1.90305e-17
1.70765e-17
1.68383e-17
1.93556e-17
2.16667e-17
2.09836e-17
1.82847e-17
1.98615e-17
2.18524e-17
1.86553e-17
1.88017e-17
1.84386e-17
1.66873e-17
1.54973e-17
1.99161e-17
1.97983e-17
2.1791e-17
1.7759e-17
1.61582e-17
2.40193e-17
1.68965e-17
1.68819e-17
1.38673e-17
1.87032e-17
1.77564e-17
1.6572e-17
1.71328e-17
1.71394e-17
1.58811e-17
1.8511e-17
1.7313e-17
2.08133e-17
2.0512e-17
1.68023e-17
2.23496e-17
1.93014e-17
1.70805e-17
1.84031e-17
1.81333e-17
1.70491e-17
2.00635e-17
1.44614e-17
1.84811e-17
1.62992e-17
1.50979e-17
1.67043e-17
1.62347e-17
1.42205e-17
1.572e-17
2.21324e-17
2.20402e-17
1.21876e-17
1.75937e-17
1.80067e-17
1.2597e-17
1.51055e-17
1.80219e-17
1.91266e-17
1.83841e-17
1.77243e-17
2.08208e-17
2.29862e-17
1.92524e-17
1.60717e-17
1.68499e-17
1.84607e-17
1.56557e-17
1.42073e-17
1.7202e-17
1.52616e-17
1.83255e-17
1.87223e-17
1.85908e-17
1.87101e-17
1.68788e-17
1.76245e-17
2.10632e-17
1.51508e-17
1.87064e-17
1.94025e-17
1.59615e-17
1.62641e-17
2.0075e-17
1.97744e-17
1.67433e-17
1.81619e-17
1.72142e-17
2.72589e-17
4.43576e-17
2.87881e-17
3.0691e-17
2.77474e-17
3.56378e-17
3.19317e-17
2.71566e-17
2.75961e-17
3.13161e-17
3.05593e-17
3.6566e-17
3.09238e-17
3.2618e-17
2.97321e-17
3.39762e-17
3.40747e-17
3.01969e-17
2.64093e-17
3.05088e-17
2.57861e-17
3.41864e-17
3.15486e-17
3.76859e-17
3.86777e-17
3.67569e-17
3.33361e-17
3.69671e-17
3.43739e-17
3.0795e-17
2.88628e-17
2.55456e-17
2.95401e-17
3.08409e-17
3.61774e-17
3.798e-17
3.42703e-17
4.76522e-17
3.81758e-17
3.80407e-17
5.54553e-17
4.06574e-17
3.09681e-17
3.66943e-17
3.18481e-17
3.44483e-17
3.07035e-17
3.01526e-17
3.24129e-17
3.96723e-17
3.62253e-17
4.09892e-17
3.61272e-17
4.21234e-17
3.4991e-17
3.34639e-17
4.09932e-17
3.40912e-17
2.75644e-17
3.67245e-17
3.38916e-17
3.79795e-17
3.44115e-17
3.32439e-17
3.24507e-17
2.91283e-17
3.30497e-17
3.21774e-17
3.4959e-17
3.2962e-17
3.42189e-17
3.41746e-17
3.16143e-17
3.63413e-17
3.20027e-17
3.28919e-17
3.79924e-17
2.83219e-17
3.07893e-17
3.84233e-17
3.81744e-17
3.0682e-17
3.32971e-17
3.25669e-17
3.52457e-17
3.59648e-17
3.13258e-17
6.38949e-17
3.3494e-17
2.79244e-17
3.51037e-17
3.96757e-17
3.84111e-17
3.04409e-17
4.73511e-17
4.0991e-17
2.63898e-17
3.33694e-17
3.616e-17
2.2775e-17
2.71316e-17
3.43571e-17
4.39642e-17
4.22081e-17
3.84027e-17
2.94218e-17
3.39488e-17
4.05422e-17
3.66952e-17
2.96268e-17
3.69864e-17
4.32643e-17
5.83015e-17
4.46383e-17
4.17042e-17
2.91543e-17
2.78309e-17
3.40493e-17
3.57438e-17
3.2506e-17
4.00444e-17
3.02335e-17
3.08349e-17
3.80257e-17
3.34936e-17
2.90707e-17
2.80615e-17
2.74806e-17
3.53833e-17
3.0009e-17
3.01021e-17
4.03966e-17
3.30865e-17
2.98585e-17
2.61562e-17
3.20445e-17
4.3719e-17
2.89565e-17
3.0747e-17
2.66903e-17
3.2337e-17
3.44932e-17
3.46315e-17
3.49632e-17
3.56934e-17
3.74092e-17
2.97198e-17
3.24291e-17
3.37709e-17
3.45941e-17
4.1904e-17
4.03002e-17
3.12941e-17
2.92265e-17
2.95858e-17
3.02857e-17
3.42961e-17
3.226e-17
3.83534e-17
3.48158e-17
3.90381e-17
4.75323e-17
3.08923e-17
3.45182e-17
4.18796e-17
3.86466e-17
3.86142e-17
3.07543e-17
3.46214e-17
4.0172e-17
2.91887e-17
4.0567e-17
3.93359e-17
3.33926e-17
3.56501e-17
3.53483e-17
3.2102e-17
3.53207e-17
3.5464e-17
2.65416e-17
3.84552e-17
4.26768e-17
2.83791e-17
3.22816e-17
3.49411e-17
4.07606e-17
3.92681e-17
3.52724e-17
3.47324e-17
3.35857e-17
3.05089e-17
3.16385e-17
3.90925e-17
3.55589e-17
3.09562e-17
3.52474e-17
3.37408e-17
4.42793e-17
3.29668e-17
3.43568e-17
3.3376e-17
3.72643e-17
3.2907e-17
3.05676e-17
3.08883e-17
3.37239e-17
3.8528e-17
3.68173e-17
2.80654e-17
4.16307e-17
3.5958e-17
3.57749e-17
3.64357e-17
3.41547e-17
3.29017e-17
3.1649e-17
2.99197e-17
3.44098e-17
3.04093e-17
3.05851e-17
2.68129e-17
3.94743e-17
3.07194e-17
2.84116e-17
3.40118e-17
3.60129e-17
3.40389e-17
3.1657e-17
3.10294e-17
2.88741e-17
3.36674e-17
3.38007e-17
3.47036e-17
4.01443e-17
4.00825e-17
3.25938e-17
2.86548e-17
3.15067e-17
2.49666e-17
3.11728e-17
2.92684e-17
3.28978e-17
3.45645e-17
4.05221e-17
3.33176e-17
3.52957e-17
2.88749e-17
3.02958e-17
3.24183e-17
3.46334e-17
3.86244e-17
3.27288e-17
3.22314e-17
3.36308e-17
3.75833e-17
3.35149e-17
6.58576e-17
7.06089e-17
5.03095e-17
5.18411e-17
6.21308e-17
7.46041e-17
6.53493e-17
6.03446e-17
7.12588e-17
4.68867e-17
6.18638e-17
5.84331e-17
6.66082e-17
6.24295e-17
5.74986e-17
5.95034e-17
6.54036e-17
5.02269e-17
4.69639e-17
5.7416e-17
5.87804e-17
6.69769e-17
6.21129e-17
7.12342e-17
7.45835e-17
6.33222e-17
6.83183e-17
6.39972e-17
6.1253e-17
5.54549e-17
6.74293e-17
6.44941e-17
6.65157e-17
6.28711e-17
7.66095e-17
6.11739e-17
5.6752e-17
6.66848e-17
6.73153e-17
6.32914e-17
6.9313e-17
6.22197e-17
5.65679e-17
9.60999e-17
7.96213e-17
5.36494e-17
6.50452e-17
5.84499e-17
6.98763e-17
7.04531e-17
6.16937e-17
6.66482e-17
5.62372e-17
7.24672e-17
6.54459e-17
6.71046e-17
6.39053e-17
6.71135e-17
8.00314e-17
7.72173e-17
5.6102e-17
6.87012e-17
7.30584e-17
6.504e-17
6.24142e-17
6.55661e-17
6.64203e-17
6.56459e-17
6.26879e-17
5.95619e-17
5.48413e-17
4.71841e-17
5.03841e-17
5.90293e-17
6.35222e-17
6.89686e-17
7.7672e-17
6.72044e-17
6.87273e-17
5.06225e-17
4.71645e-17
7.85102e-17
6.02864e-17
7.22261e-17
6.3857e-17
5.04342e-17
5.36055e-17
7.01799e-17
5.55395e-17
5.55657e-17
5.87728e-17
8.03854e-17
6.58062e-17
5.76443e-17
7.56017e-17
7.41539e-17
5.35542e-17
6.9787e-17
5.81613e-17
6.88419e-17
6.33778e-17
5.63527e-17
6.16446e-17
7.53686e-17
7.81431e-17
5.5878e-17
5.55655e-17
5.53231e-17
6.70277e-17
6.31984e-17
5.45731e-17
6.84132e-17
6.52395e-17
4.85563e-17
7.09878e-17
6.57414e-17
5.0374e-17
6.00675e-17
5.21356e-17
4.72311e-17
5.44615e-17
5.27145e-17
5.93807e-17
7.09018e-17
6.17174e-17
6.00745e-17
5.03486e-17
5.17464e-17
5.71678e-17
6.5238e-17
6.33186e-17
6.69544e-17
5.78948e-17
5.5277e-17
5.57695e-17
5.25046e-17
7.23453e-17
5.33656e-17
4.98327e-17
6.58061e-17
6.37158e-17
6.29055e-17
5.46312e-17
5.35783e-17
6.88934e-17
7.4326e-17
5.69807e-17
7.08658e-17
5.81972e-17
6.11854e-17
6.04393e-17
6.00821e-17
6.42175e-17
5.30228e-17
6.96443e-17
5.94664e-17
5.58575e-17
4.90808e-17
5.97318e-17
5.40655e-17
6.50687e-17
7.69798e-17
6.77335e-17
6.06312e-17
5.26105e-17
5.76322e-17
6.89762e-17
5.894e-17
6.87671e-17
5.74848e-17
6.15148e-17
5.36545e-17
6.66514e-17
5.39298e-17
5.94073e-17
7.60743e-17
5.66229e-17
6.26779e-17
7.2943e-17
6.79164e-17
6.58422e-17
6.90958e-17
5.36756e-17
5.85602e-17
7.36796e-17
7.33882e-17
6.71505e-17
7.32192e-17
6.46765e-17
6.00348e-17
4.93742e-17
6.30921e-17
6.49276e-17
6.74281e-17
6.2182e-17
5.37767e-17
5.55926e-17
6.61641e-17
5.56317e-17
6.4592e-17
7.29152e-17
6.20913e-17
5.50051e-17
6.98762e-17
5.76897e-17
6.69872e-17
6.39364e-17
5.51255e-17
5.4394e-17
5.28555e-17
6.52213e-17
5.09241e-17
5.24493e-17
6.62269e-17
6.40211e-17
6.66583e-17
6.22519e-17
5.76447e-17
6.28271e-17
6.48e-17
7.19807e-17
6.72065e-17
5.7759e-17
5.23902e-17
6.15289e-17
6.1988e-17
5.4508e-17
5.2906e-17
5.48432e-17
6.53113e-17
6.99352e-17
6.31347e-17
6.27765e-17
6.42642e-17
6.2882e-17
5.96331e-17
5.43584e-17
6.36804e-17
7.16873e-17
5.71213e-17
5.33283e-17
6.26063e-17
7.34132e-17
5.93651e-17
6.05557e-17
7.10441e-17
7.20434e-17
7.89901e-17
6.24878e-17
8.05281e-17
6.93589e-17
5.86995e-17
5.63407e-17
8.18233e-17
6.26149e-17
6.57577e-17
1.2394e-16
1.16337e-16
1.16674e-16
1.20899e-16
1.10196e-16
1.56203e-16
1.35614e-16
9.23349e-17
1.22205e-16
1.1986e-16
1.12074e-16
1.04363e-16
1.16623e-16
1.0804e-16
1.22472e-16
1.03713e-16
1.12723e-16
1.00212e-16
1.11228e-16
1.30155e-16
1.33612e-16
1.20341e-16
1.26467e-16
1.57368e-16
1.16028e-16
1.08417e-16
1.15372e-16
1.1719e-16
1.1047e-16
1.04503e-16
1.46121e-16
1.3167e-16
1.44516e-16
1.37801e-16
1.00955e-16
1.45684e-16
1.10114e-16
1.09088e-16
1.24769e-16
1.25224e-16
1.15548e-16
1.08662e-16
1.25588e-16
1.33045e-16
1.30206e-16
1.02788e-16
1.30702e-16
1.10066e-16
1.04042e-16
1.17269e-16
1.39778e-16
1.54466e-16
1.28486e-16
1.20017e-16
1.3336e-16
1.00912e-16
1.32419e-16
1.5143e-16
1.43749e-16
1.27148e-16
1.03961e-16
1.15889e-16
1.11174e-16
8.69414e-17
9.97284e-17
1.01525e-16
1.35391e-16
1.29405e-16
1.07681e-16
1.04111e-16
1.29064e-16
1.15825e-16
1.12103e-16
1.1652e-16
1.24734e-16
1.28645e-16
1.33413e-16
1.32404e-16
1.28986e-16
1.25116e-16
1.00296e-16
1.87919e-16
1.01488e-16
1.2529e-16
1.25347e-16
1.2356e-16
9.73418e-17
9.78211e-17
1.06841e-16
1.19471e-16
1.16178e-16
1.28079e-16
1.03429e-16
1.20237e-16
1.06263e-16
1.01752e-16
1.19941e-16
1.32386e-16
1.37898e-16
1.1852e-16
1.18414e-16
1.1478e-16
1.38444e-16
1.22564e-16
1.322e-16
1.05918e-16
1.08851e-16
1.01066e-16
1.14221e-16
1.18733e-16
1.17478e-16
1.18824e-16
1.32635e-16
1.1106e-16
1.22802e-16
1.28194e-16
1.18914e-16
1.23068e-16
1.26175e-16
9.7536e-17
1.05163e-16
8.79528e-17
1.02702e-16
1.08957e-16
1.07778e-16
1.34708e-16
1.10031e-16
1.0722e-16
1.23809e-16
1.08018e-16
1.08556e-16
1.29509e-16
1.22285e-16
1.23839e-16
1.32101e-16
1.31776e-16
1.3154e-16
1.08031e-16
1.20411e-16
1.20586e-16
1.37191e-16
1.0956e-16
1.01063e-16
1.11501e-16
1.0745e-16
1.21867e-16
1.38559e-16
1.33917e-16
1.3717e-16
1.26017e-16
1.28218e-16
1.35129e-16
1.34941e-16
1.20877e-16
1.28961e-16
9.63328e-17
1.19843e-16
1.14304e-16
1.12441e-16
1.20691e-16
1.31371e-16
1.19713e-16
1.35643e-16
1.29865e-16
1.0085e-16
9.90516e-17
1.29724e-16
1.11576e-16
1.00584e-16
1.18339e-16
1.09938e-16
1.03307e-16
1.16875e-16
1.21589e-16
1.48199e-16
1.43614e-16
1.57832e-16
1.38064e-16
1.20334e-16
1.29251e-16
1.30504e-16
1.21448e-16
1.05582e-16
1.30675e-16
1.53334e-16
1.22077e-16
1.17541e-16
1.25349e-16
1.34008e-16
1.17264e-16
1.09297e-16
1.0921e-16
1.09257e-16
1.25614e-16
1.25853e-16
1.06344e-16
1.22557e-16
9.67213e-17
9.78106e-17
1.06129e-16
1.15839e-16
1.14575e-16
1.03507e-16
1.30563e-16
9.22685e-17
1.6903e-16
1.16907e-16
1.30091e-16
1.38246e-16
1.18282e-16
1.23082e-16
1.03415e-16
1.10208e-16
1.04732e-16
1.0554e-16
1.42008e-16
1.32956e-16
1.35445e-16
1.43818e-16
1.1935e-16
1.60345e-16
1.20719e-16
1.2258e-16
1.12924e-16
1.10352e-16
1.15182e-16
1.1878e-16
9.67653e-17
1.13285e-16
1.28705e-16
1.05601e-16
1.1457e-16
1.10585e-16
1.45154e-16
1.18694e-16
1.0516e-16
1.23953e-16
1.27125e-16
1.29539e-16
1.24369e-16
1.59199e-16
1.33459e-16
1.13971e-16
1.08566e-16
1.25138e-16
1.21093e-16
1.02287e-16
1.09863e-16
1.21471e-16
1.41716e-16
1.38621e-16
1.06987e-16
9.83325e-17
8.90122e-17
1.45267e-16
1.35622e-16
2.24113e-16
2.23951e-16
1.90499e-16
1.74367e-16
2.22341e-16
2.59751e-16
2.07546e-16
2.09882e-16
2.59762e-16
2.59526e-16
1.91232e-16
2.32784e-16
1.6828e-16
2.21663e-16
1.9396e-16
1.68636e-16
2.77922e-16
2.22985e-16
1.92914e-16
2.17262e-16
2.0271e-16
1.67247e-16
2.13237e-16
2.33413e-16
2.63617e-16
2.87314e-16
2.37707e-16
1.99383e-16
1.77149e-16
2.25332e-16
2.17599e-16
2.04019e-16
2.24311e-16
2.07964e-16
1.85835e-16
2.72467e-16
2.72143e-16
2.60545e-16
2.33618e-16
2.17235e-16
1.99765e-16
2.30731e-16
2.21464e-16
1.80512e-16
2.1828e-16
2.07796e-16
2.53587e-16
1.7593e-16
2.06058e-16
2.39079e-16
2.71074e-16
2.57303e-16
2.37646e-16
2.07372e-16
2.09332e-16
2.44085e-16
2.02146e-16
1.9575e-16
2.51392e-16
2.36676e-16
1.9298e-16
2.25503e-16
1.93582e-16
2.02606e-16
2.08637e-16
1.93268e-16
2.34308e-16
1.94324e-16
2.40376e-16
2.48585e-16
2.2201e-16
2.0178e-16
2.12439e-16
2.43688e-16
2.23272e-16
2.08498e-16
2.44104e-16
2.13137e-16
3.01422e-16
2.47418e-16
2.12953e-16
2.25674e-16
1.82128e-16
2.10481e-16
1.95516e-16
2.18354e-16
2.43e-16
1.79693e-16
1.87196e-16
2.1071e-16
2.52189e-16
2.13665e-16
1.92899e-16
2.14301e-16
3.27554e-16
2.11638e-16
2.36648e-16
2.00323e-16
2.37412e-16
2.40082e-16
2.80905e-16
2.44015e-16
2.53331e-16
2.63569e-16
2.39997e-16
2.25194e-16
2.13063e-16
1.98277e-16
2.11505e-16
2.10084e-16
2.54113e-16
2.17781e-16
2.0765e-16
1.65691e-16
1.64173e-16
1.77503e-16
2.31481e-16
2.57197e-16
2.09622e-16
1.77231e-16
1.92296e-16
2.05881e-16
2.04865e-16
2.16277e-16
1.55599e-16
2.32618e-16
1.86916e-16
1.92727e-16
1.94455e-16
2.06254e-16
1.60919e-16
2.17074e-16
2.36049e-16
2.286e-16
2.20016e-16
1.96761e-16
1.84195e-16
2.41759e-16
2.47408e-16
1.99569e-16
2.28195e-16
2.36272e-16
2.10098e-16
2.13786e-16
1.57329e-16
2.45669e-16
2.49738e-16
1.93807e-16
2.79469e-16
2.17557e-16
2.39409e-16
2.13274e-16
2.19114e-16
2.63615e-16
2.27978e-16
2.48764e-16
2.12194e-16
2.12377e-16
1.84781e-16
2.37753e-16
2.84522e-16
2.41359e-16
2.38886e-16
2.35624e-16
1.93106e-16
2.2949e-16
2.20888e-16
2.14834e-16
2.1101e-16
2.28232e-16
2.21931e-16
2.24797e-16
2.17894e-16
2.32755e-16
2.48411e-16
2.2273e-16
2.44415e-16
1.77636e-16
2.20271e-16
2.23233e-16
2.15075e-16
1.83647e-16
1.87221e-16
2.20617e-16
2.18829e-16
1.65596e-16
1.82479e-16
2.04065e-16
1.90325e-16
1.89962e-16
2.3325e-16
2.43128e-16
1.85696e-16
2.17601e-16
2.51268e-16
1.91233e-16
2.55941e-16
2.36532e-16
2.0305e-16
2.09179e-16
1.97707e-16
1.96979e-16
2.10281e-16
1.88295e-16
1.73176e-16
2.41837e-16
2.24574e-16
1.87201e-16
2.06819e-16
2.49249e-16
2.25174e-16
2.06017e-16
2.44398e-16
1.97801e-16
2.69662e-16
2.34929e-16
2.37401e-16
2.55836e-16
3.00845e-16
1.8649e-16
2.07474e-16
1.82301e-16
2.24463e-16
2.40064e-16
2.34391e-16
2.36709e-16
2.43002e-16
1.94358e-16
2.29716e-16
2.45992e-16
2.38047e-16
3.15664e-16
2.4765e-16
2.41668e-16
2.32901e-16
2.14521e-16
2.60464e-16
2.53532e-16
2.39039e-16
2.25319e-16
2.03845e-16
2.20046e-16
2.20878e-16
2.17961e-16
1.984e-16
1.81176e-16
2.03196e-16
1.95723e-16
2.52379e-16
2.67949e-16
2.50872e-16
2.22861e-16
2.51981e-16
2.07182e-16
2.4602e-16
2.84245e-16
3.96574e-16
3.47141e-16
3.95305e-16
3.28123e-16
4.24753e-16
4.69636e-16
3.65051e-16
4.10987e-16
4.50095e-16
4.55367e-16
4.65911e-16
5.63733e-16
3.38192e-16
4.92233e-16
5.07363e-16
4.24751e-16
4.9826e-16
4.05117e-16
3.41727e-16
4.16384e-16
3.95112e-16
3.763e-16
3.56311e-16
3.88969e-16
4.23227e-16
4.59826e-16
4.33775e-16
3.89254e-16
3.89665e-16
3.74937e-16
3.79574e-16
4.0569e-16
5.15364e-16
4.51205e-16
4.58903e-16
4.11948e-16
4.41791e-16
4.12826e-16
3.50962e-16
3.51882e-16
4.06836e-16
3.20006e-16
3.11824e-16
5.09405e-16
4.7505e-16
4.56107e-16
3.78209e-16
3.74456e-16
4.20577e-16
4.22744e-16
4.72276e-16
4.53824e-16
4.8528e-16
4.90174e-16
3.68797e-16
4.0586e-16
3.62834e-16
3.02477e-16
3.75892e-16
4.07436e-16
3.81213e-16
3.87557e-16
3.45815e-16
3.64211e-16
3.74356e-16
3.48659e-16
3.75654e-16
3.84584e-16
3.7344e-16
5.2642e-16
5.27098e-16
3.4106e-16
3.55968e-16
3.78256e-16
3.90082e-16
3.92526e-16
4.88579e-16
4.28528e-16
3.76208e-16
3.75815e-16
3.68517e-16
3.58288e-16
3.99986e-16
4.25023e-16
4.67926e-16
3.9516e-16
3.56064e-16
3.68101e-16
3.53066e-16
3.82984e-16
4.00224e-16
3.57015e-16
4.01075e-16
4.26733e-16
4.89041e-16
3.99696e-16
3.60244e-16
3.58185e-16
4.3496e-16
4.87184e-16
5.5562e-16
4.41398e-16
4.32593e-16
4.93022e-16
4.38321e-16
4.26724e-16
3.91229e-16
3.92776e-16
5.14706e-16
4.28916e-16
3.90645e-16
3.87846e-16
4.51261e-16
3.60874e-16
3.57921e-16
2.83384e-16
3.35826e-16
3.99442e-16
3.78374e-16
3.31832e-16
3.81156e-16
3.86398e-16
3.43952e-16
3.84264e-16
2.88144e-16
3.54153e-16
4.07666e-16
4.05159e-16
5.19739e-16
3.97412e-16
4.24671e-16
3.39497e-16
3.83658e-16
3.92421e-16
3.85937e-16
3.50454e-16
4.17218e-16
4.03737e-16
3.20227e-16
3.38451e-16
4.68163e-16
5.41137e-16
4.82145e-16
5.84982e-16
4.57712e-16
4.27919e-16
4.27787e-16
3.57194e-16
4.18752e-16
3.71357e-16
3.79338e-16
4.94717e-16
4.76531e-16
4.25454e-16
4.82018e-16
5.20602e-16
4.24512e-16
3.49645e-16
3.43555e-16
3.18852e-16
4.21662e-16
4.07179e-16
3.23868e-16
4.7972e-16
5.9436e-16
4.64086e-16
3.69206e-16
4.54101e-16
3.89638e-16
3.81458e-16
4.27309e-16
5.10608e-16
4.24964e-16
4.15959e-16
3.41903e-16
4.30839e-16
3.83269e-16
5.67477e-16
5.63469e-16
4.20128e-16
3.58543e-16
3.82926e-16
4.38261e-16
4.40904e-16
3.62001e-16
2.9232e-16
4.11654e-16
4.72604e-16
5.2617e-16
4.56553e-16
4.18905e-16
3.42665e-16
4.06153e-16
4.18533e-16
4.61494e-16
3.43852e-16
3.81916e-16
3.96479e-16
3.99406e-16
4.12646e-16
3.49152e-16
4.54468e-16
3.97847e-16